
     Program BANDS v.7.0 starts on 19Jun2022 at 11:26: 1 

     This program is part of the open-source Quantum ESPRESSO suite
     for quantum simulation of materials; please cite
         "P. Giannozzi et al., J. Phys.:Condens. Matter 21 395502 (2009);
         "P. Giannozzi et al., J. Phys.:Condens. Matter 29 465901 (2017);
         "P. Giannozzi et al., J. Chem. Phys. 152 154105 (2020);
          URL http://www.quantum-espresso.org", 
     in publications or presentations arising from this work. More details at
     http://www.quantum-espresso.org/quote

     Parallel version (MPI), running on    64 processors

     MPI processes distributed on     1 nodes
     R & G space division:  proc/nbgrp/npool/nimage =      64
     840243 MiB available memory on the printing compute node when the environment starts
 

     Reading xml data from directory:

     ./outdir/0.0001.save/
     file Nb.pbe-spn-rrkjus_psl.1.0.0.UPF: wavefunction(s)  4S 4P renormalized
     file Se.pbe-mt_fhi.UPF: wavefunction(s)  4f renormalized

     IMPORTANT: XC functional enforced from input :
     Exchange-correlation= PBE
                           (   1   4   3   4   0   0   0)
     Any further DFT definition will be discarded
     Please, verify this is what you really want

 
     Parallelization info
     --------------------
     sticks:   dense  smooth     PW     G-vecs:    dense   smooth      PW
     Min          37      37     10                 5819     5819     828
     Max          38      38     11                 5840     5840     847
     Sum        2383    2383    649               373429   373429   53367
 
     Using Slab Decomposition
 

     negative rho (up, down):  1.276E-06 0.000E+00
     Reading collected, re-writing distributed wavefunctions
     high-symmetry point:  0.0000 0.0000 0.0000   x coordinate   0.0000
     high-symmetry point:  0.0000 0.5774 0.0000   x coordinate   0.5774
     high-symmetry point:  0.3333 0.5774 0.0000   x coordinate   0.9107
     high-symmetry point:  0.0000 0.0000 0.0000   x coordinate   1.5774

     Plottable bands (eV) written to file 0.0001.bands.dat.gnu
     Bands written to file 0.0001.bands.dat

 **************************************************************************

                    xk=(   0.00000,   0.00000,   0.00000  )

     point group D_3h (-62m)
     there are  6 classes
     the character table:

       E     2C3   3C2   s_h   2S3   3s_v 
A'_1   1.00  1.00  1.00  1.00  1.00  1.00
A'_2   1.00  1.00 -1.00  1.00  1.00 -1.00
E'     2.00 -1.00  0.00  2.00 -1.00  0.00
A''1   1.00  1.00  1.00 -1.00 -1.00 -1.00
A''2   1.00  1.00 -1.00 -1.00 -1.00  1.00
E''    2.00 -1.00  0.00 -2.00  1.00  0.00

     the symmetry operations in each class and the name of the first element:

     E        1
                                                                 
     2C3      3    4
                                                                 
     3C2      2    6    5
                                                                 
     s_h      7
                                                                 
     2S3      9   10
                                                                 
     3s_v     8   11   12
                                                                 

     Band symmetry, D_3h (-62m) point group:

     e(  1 -  1) =    -53.91949  eV     1   --> A'_1           
     e(  2 -  2) =    -29.99230  eV     1   --> A''2           
     e(  3 -  4) =    -29.89312  eV     2   --> E'             
     e(  5 -  5) =    -12.38785  eV     1   --> A'_1           
     e(  6 -  6) =    -11.42741  eV     1   --> A''2           
     e(  7 -  7) =     -3.66316  eV     1   --> A'_1           
     e(  8 -  9) =     -0.68993  eV     2   --> E'             
     e( 10 - 10) =     -0.21119  eV     1   --> A''2           
     e( 11 - 12) =      0.27514  eV     2   --> E''            
     e( 13 - 13) =      1.73574  eV     1   --> A'_1           
     e( 14 - 15) =      4.06715  eV     2   --> E''            
     e( 16 - 17) =      4.25441  eV     2   --> E'             

 **************************************************************************

 **************************************************************************

                    xk=(   0.00000,   0.00289,   0.00000  )

     point group C_2v (mm2) 
     there are  4 classes
     the character table:

       E     C2    s_v   s_v' 
A_1    1.00  1.00  1.00  1.00
A_2    1.00  1.00 -1.00 -1.00
B_1    1.00 -1.00  1.00 -1.00
B_2    1.00 -1.00 -1.00  1.00

     the symmetry operations in each class and the name of the first element:

     E        1
                                                                 
     C2       2
                                                                 
     s_v      3
                                                                 
     s_v'     4
                                                                 

     Band symmetry, C_2v (mm2)  point group:

     e(  1 -  1) =    -53.91949  eV     1   --> A_1  D_1  S_1  
     e(  2 -  2) =    -29.99230  eV     1   --> B_2  D_4  S_4  
     e(  3 -  4) =    -29.89314  eV     2   --> A_1  D_1  S_1  
     e(  3 -  4) =    -29.89314  eV     2   --> B_1  D_3  S_3  
     e(  5 -  5) =    -12.38778  eV     1   --> A_1  D_1  S_1  
     e(  6 -  6) =    -11.42738  eV     1   --> B_2  D_4  S_4  
     e(  7 -  7) =     -3.66306  eV     1   --> A_1  D_1  S_1  
     e(  8 -  8) =     -0.69017  eV     1   --> A_1  D_1  S_1  
     e(  9 -  9) =     -0.68985  eV     1   --> B_1  D_3  S_3  
     e( 10 - 10) =     -0.21156  eV     1   --> B_2  D_4  S_4  
     e( 11 - 11) =      0.27500  eV     1   --> A_2  D_2  S_2  
     e( 12 - 12) =      0.27536  eV     1   --> B_2  D_4  S_4  
     e( 13 - 13) =      1.73569  eV     1   --> A_1  D_1  S_1  
     e( 14 - 14) =      4.06695  eV     1   --> B_2  D_4  S_4  
     e( 15 - 15) =      4.06731  eV     1   --> A_2  D_2  S_2  
     e( 16 - 16) =      4.25407  eV     1   --> A_1  D_1  S_1  
     e( 17 - 17) =      4.25431  eV     1   --> B_1  D_3  S_3  

 **************************************************************************

 **************************************************************************

                    xk=(   0.00000,   0.00577,   0.00000  )

     Band symmetry, C_2v (mm2)  point group:

     e(  1 -  1) =    -53.91948  eV     1   --> A_1  D_1  S_1  
     e(  2 -  2) =    -29.99229  eV     1   --> B_2  D_4  S_4  
     e(  3 -  4) =    -29.89318  eV     2   --> A_1  D_1  S_1  
     e(  3 -  4) =    -29.89318  eV     2   --> B_1  D_3  S_3  
     e(  5 -  5) =    -12.38757  eV     1   --> A_1  D_1  S_1  
     e(  6 -  6) =    -11.42728  eV     1   --> B_2  D_4  S_4  
     e(  7 -  7) =     -3.66278  eV     1   --> A_1  D_1  S_1  
     e(  8 -  8) =     -0.69091  eV     1   --> A_1  D_1  S_1  
     e(  9 -  9) =     -0.68964  eV     1   --> B_1  D_3  S_3  
     e( 10 - 10) =     -0.21267  eV     1   --> B_2  D_4  S_4  
     e( 11 - 11) =      0.27457  eV     1   --> A_2  D_2  S_2  
     e( 12 - 12) =      0.27602  eV     1   --> B_2  D_4  S_4  
     e( 13 - 13) =      1.73555  eV     1   --> A_1  D_1  S_1  
     e( 14 - 14) =      4.06635  eV     1   --> B_2  D_4  S_4  
     e( 15 - 15) =      4.06778  eV     1   --> A_2  D_2  S_2  
     e( 16 - 16) =      4.25306  eV     1   --> A_1  D_1  S_1  
     e( 17 - 17) =      4.25402  eV     1   --> B_1  D_3  S_3  

 **************************************************************************

 **************************************************************************

                    xk=(   0.00000,   0.00866,   0.00000  )

     Band symmetry, C_2v (mm2)  point group:

     e(  1 -  1) =    -53.91948  eV     1   --> A_1  D_1  S_1  
     e(  2 -  2) =    -29.99227  eV     1   --> B_2  D_4  S_4  
     e(  3 -  3) =    -29.89326  eV     1   --> A_1  D_1  S_1  
     e(  4 -  4) =    -29.89315  eV     1   --> B_1  D_3  S_3  
     e(  5 -  5) =    -12.38722  eV     1   --> A_1  D_1  S_1  
     e(  6 -  6) =    -11.42712  eV     1   --> B_2  D_4  S_4  
     e(  7 -  7) =     -3.66231  eV     1   --> A_1  D_1  S_1  
     e(  8 -  8) =     -0.69213  eV     1   --> A_1  D_1  S_1  
     e(  9 -  9) =     -0.68929  eV     1   --> B_1  D_3  S_3  
     e( 10 - 10) =     -0.21450  eV     1   --> B_2  D_4  S_4  
     e( 11 - 11) =      0.27386  eV     1   --> A_2  D_2  S_2  
     e( 12 - 12) =      0.27710  eV     1   --> B_2  D_4  S_4  
     e( 13 - 13) =      1.73531  eV     1   --> A_1  D_1  S_1  
     e( 14 - 14) =      4.06536  eV     1   --> B_2  D_4  S_4  
     e( 15 - 15) =      4.06856  eV     1   --> A_2  D_2  S_2  
     e( 16 - 16) =      4.25138  eV     1   --> A_1  D_1  S_1  
     e( 17 - 17) =      4.25354  eV     1   --> B_1  D_3  S_3  

 **************************************************************************

 **************************************************************************

                    xk=(   0.00000,   0.01155,   0.00000  )

     Band symmetry, C_2v (mm2)  point group:

     e(  1 -  1) =    -53.91947  eV     1   --> A_1  D_1  S_1  
     e(  2 -  2) =    -29.99225  eV     1   --> B_2  D_4  S_4  
     e(  3 -  3) =    -29.89336  eV     1   --> A_1  D_1  S_1  
     e(  4 -  4) =    -29.89318  eV     1   --> B_1  D_3  S_3  
     e(  5 -  5) =    -12.38674  eV     1   --> A_1  D_1  S_1  
     e(  6 -  6) =    -11.42690  eV     1   --> B_2  D_4  S_4  
     e(  7 -  7) =     -3.66165  eV     1   --> A_1  D_1  S_1  
     e(  8 -  8) =     -0.69385  eV     1   --> A_1  D_1  S_1  
     e(  9 -  9) =     -0.68879  eV     1   --> B_1  D_3  S_3  
     e( 10 - 10) =     -0.21706  eV     1   --> B_2  D_4  S_4  
     e( 11 - 11) =      0.27287  eV     1   --> A_2  D_2  S_2  
     e( 12 - 12) =      0.27861  eV     1   --> B_2  D_4  S_4  
     e( 13 - 13) =      1.73498  eV     1   --> A_1  D_1  S_1  
     e( 14 - 14) =      4.06397  eV     1   --> B_2  D_4  S_4  
     e( 15 - 15) =      4.06965  eV     1   --> A_2  D_2  S_2  
     e( 16 - 16) =      4.24904  eV     1   --> A_1  D_1  S_1  
     e( 17 - 17) =      4.25286  eV     1   --> B_1  D_3  S_3  

 **************************************************************************

 **************************************************************************

                    xk=(   0.00000,   0.01443,   0.00000  )

     Band symmetry, C_2v (mm2)  point group:

     e(  1 -  1) =    -53.91946  eV     1   --> A_1  D_1  S_1  
     e(  2 -  2) =    -29.99222  eV     1   --> B_2  D_4  S_4  
     e(  3 -  3) =    -29.89350  eV     1   --> A_1  D_1  S_1  
     e(  4 -  4) =    -29.89321  eV     1   --> B_1  D_3  S_3  
     e(  5 -  5) =    -12.38611  eV     1   --> A_1  D_1  S_1  
     e(  6 -  6) =    -11.42662  eV     1   --> B_2  D_4  S_4  
     e(  7 -  7) =     -3.66080  eV     1   --> A_1  D_1  S_1  
     e(  8 -  8) =     -0.69605  eV     1   --> A_1  D_1  S_1  
     e(  9 -  9) =     -0.68815  eV     1   --> B_1  D_3  S_3  
     e( 10 - 10) =     -0.22031  eV     1   --> B_2  D_4  S_4  
     e( 11 - 11) =      0.27159  eV     1   --> A_2  D_2  S_2  
     e( 12 - 12) =      0.28051  eV     1   --> B_2  D_4  S_4  
     e( 13 - 13) =      1.73455  eV     1   --> A_1  D_1  S_1  
     e( 14 - 14) =      4.06219  eV     1   --> B_2  D_4  S_4  
     e( 15 - 15) =      4.07105  eV     1   --> A_2  D_2  S_2  
     e( 16 - 16) =      4.24605  eV     1   --> A_1  D_1  S_1  
     e( 17 - 17) =      4.25199  eV     1   --> B_1  D_3  S_3  

 **************************************************************************

 **************************************************************************

                    xk=(   0.00000,   0.01732,   0.00000  )

     Band symmetry, C_2v (mm2)  point group:

     e(  1 -  1) =    -53.91944  eV     1   --> A_1  D_1  S_1  
     e(  2 -  2) =    -29.99219  eV     1   --> B_2  D_4  S_4  
     e(  3 -  3) =    -29.89366  eV     1   --> A_1  D_1  S_1  
     e(  4 -  4) =    -29.89325  eV     1   --> B_1  D_3  S_3  
     e(  5 -  5) =    -12.38535  eV     1   --> A_1  D_1  S_1  
     e(  6 -  6) =    -11.42627  eV     1   --> B_2  D_4  S_4  
     e(  7 -  7) =     -3.65976  eV     1   --> A_1  D_1  S_1  
     e(  8 -  8) =     -0.69873  eV     1   --> A_1  D_1  S_1  
     e(  9 -  9) =     -0.68737  eV     1   --> B_1  D_3  S_3  
     e( 10 - 10) =     -0.22425  eV     1   --> B_2  D_4  S_4  
     e( 11 - 11) =      0.27003  eV     1   --> A_2  D_2  S_2  
     e( 12 - 12) =      0.28279  eV     1   --> B_2  D_4  S_4  
     e( 13 - 13) =      1.73402  eV     1   --> A_1  D_1  S_1  
     e( 14 - 14) =      4.06002  eV     1   --> B_2  D_4  S_4  
     e( 15 - 15) =      4.07276  eV     1   --> A_2  D_2  S_2  
     e( 16 - 16) =      4.24241  eV     1   --> A_1  D_1  S_1  
     e( 17 - 17) =      4.25093  eV     1   --> B_1  D_3  S_3  

 **************************************************************************

 **************************************************************************

                    xk=(   0.00000,   0.02021,   0.00000  )

     Band symmetry, C_2v (mm2)  point group:

     e(  1 -  1) =    -53.91943  eV     1   --> A_1  D_1  S_1  
     e(  2 -  2) =    -29.99215  eV     1   --> B_2  D_4  S_4  
     e(  3 -  3) =    -29.89386  eV     1   --> A_1  D_1  S_1  
     e(  4 -  4) =    -29.89329  eV     1   --> B_1  D_3  S_3  
     e(  5 -  5) =    -12.38444  eV     1   --> A_1  D_1  S_1  
     e(  6 -  6) =    -11.42586  eV     1   --> B_2  D_4  S_4  
     e(  7 -  7) =     -3.65853  eV     1   --> A_1  D_1  S_1  
     e(  8 -  8) =     -0.70190  eV     1   --> A_1  D_1  S_1  
     e(  9 -  9) =     -0.68645  eV     1   --> B_1  D_3  S_3  
     e( 10 - 10) =     -0.22885  eV     1   --> B_2  D_4  S_4  
     e( 11 - 11) =      0.26819  eV     1   --> A_2  D_2  S_2  
     e( 12 - 12) =      0.28543  eV     1   --> B_2  D_4  S_4  
     e( 13 - 13) =      1.73339  eV     1   --> A_1  D_1  S_1  
     e( 14 - 14) =      4.05748  eV     1   --> B_2  D_4  S_4  
     e( 15 - 15) =      4.07478  eV     1   --> A_2  D_2  S_2  
     e( 16 - 16) =      4.23815  eV     1   --> A_1  D_1  S_1  
     e( 17 - 17) =      4.24968  eV     1   --> B_1  D_3  S_3  

 **************************************************************************

 **************************************************************************

                    xk=(   0.00000,   0.02309,   0.00000  )

     Band symmetry, C_2v (mm2)  point group:

     e(  1 -  1) =    -53.91941  eV     1   --> A_1  D_1  S_1  
     e(  2 -  2) =    -29.99210  eV     1   --> B_2  D_4  S_4  
     e(  3 -  3) =    -29.89408  eV     1   --> A_1  D_1  S_1  
     e(  4 -  4) =    -29.89334  eV     1   --> B_1  D_3  S_3  
     e(  5 -  5) =    -12.38340  eV     1   --> A_1  D_1  S_1  
     e(  6 -  6) =    -11.42538  eV     1   --> B_2  D_4  S_4  
     e(  7 -  7) =     -3.65712  eV     1   --> A_1  D_1  S_1  
     e(  8 -  8) =     -0.70556  eV     1   --> A_1  D_1  S_1  
     e(  9 -  9) =     -0.68539  eV     1   --> B_1  D_3  S_3  
     e( 10 - 10) =     -0.23408  eV     1   --> B_2  D_4  S_4  
     e( 11 - 11) =      0.26608  eV     1   --> A_2  D_2  S_2  
     e( 12 - 12) =      0.28840  eV     1   --> B_2  D_4  S_4  
     e( 13 - 13) =      1.73267  eV     1   --> A_1  D_1  S_1  
     e( 14 - 14) =      4.05458  eV     1   --> B_2  D_4  S_4  
     e( 15 - 15) =      4.07710  eV     1   --> A_2  D_2  S_2  
     e( 16 - 16) =      4.23328  eV     1   --> A_1  D_1  S_1  
     e( 17 - 17) =      4.24823  eV     1   --> B_1  D_3  S_3  

 **************************************************************************

 **************************************************************************

                    xk=(   0.00000,   0.02598,   0.00000  )

     Band symmetry, C_2v (mm2)  point group:

     e(  1 -  1) =    -53.91939  eV     1   --> A_1  D_1  S_1  
     e(  2 -  2) =    -29.99204  eV     1   --> B_2  D_4  S_4  
     e(  3 -  3) =    -29.89434  eV     1   --> A_1  D_1  S_1  
     e(  4 -  4) =    -29.89340  eV     1   --> B_1  D_3  S_3  
     e(  5 -  5) =    -12.38222  eV     1   --> A_1  D_1  S_1  
     e(  6 -  6) =    -11.42485  eV     1   --> B_2  D_4  S_4  
     e(  7 -  7) =     -3.65552  eV     1   --> A_1  D_1  S_1  
     e(  8 -  8) =     -0.70969  eV     1   --> A_1  D_1  S_1  
     e(  9 -  9) =     -0.68419  eV     1   --> B_1  D_3  S_3  
     e( 10 - 10) =     -0.23991  eV     1   --> B_2  D_4  S_4  
     e( 11 - 11) =      0.26368  eV     1   --> A_2  D_2  S_2  
     e( 12 - 12) =      0.29167  eV     1   --> B_2  D_4  S_4  
     e( 13 - 13) =      1.73184  eV     1   --> A_1  D_1  S_1  
     e( 14 - 14) =      4.05131  eV     1   --> B_2  D_4  S_4  
     e( 15 - 15) =      4.07972  eV     1   --> A_2  D_2  S_2  
     e( 16 - 16) =      4.22781  eV     1   --> A_1  D_1  S_1  
     e( 17 - 17) =      4.24660  eV     1   --> B_1  D_3  S_3  

 **************************************************************************

 **************************************************************************

                    xk=(   0.00000,   0.02887,   0.00000  )

     Band symmetry, C_2v (mm2)  point group:

     e(  1 -  1) =    -53.91937  eV     1   --> A_1  D_1  S_1  
     e(  2 -  2) =    -29.99198  eV     1   --> B_2  D_4  S_4  
     e(  3 -  3) =    -29.89462  eV     1   --> A_1  D_1  S_1  
     e(  4 -  4) =    -29.89346  eV     1   --> B_1  D_3  S_3  
     e(  5 -  5) =    -12.38090  eV     1   --> A_1  D_1  S_1  
     e(  6 -  6) =    -11.42425  eV     1   --> B_2  D_4  S_4  
     e(  7 -  7) =     -3.65373  eV     1   --> A_1  D_1  S_1  
     e(  8 -  8) =     -0.71430  eV     1   --> A_1  D_1  S_1  
     e(  9 -  9) =     -0.68284  eV     1   --> B_1  D_3  S_3  
     e( 10 - 10) =     -0.24633  eV     1   --> B_2  D_4  S_4  
     e( 11 - 11) =      0.26101  eV     1   --> A_2  D_2  S_2  
     e( 12 - 12) =      0.29522  eV     1   --> B_2  D_4  S_4  
     e( 13 - 13) =      1.73092  eV     1   --> A_1  D_1  S_1  
     e( 14 - 14) =      4.04770  eV     1   --> B_2  D_4  S_4  
     e( 15 - 15) =      4.08265  eV     1   --> A_2  D_2  S_2  
     e( 16 - 16) =      4.22178  eV     1   --> A_1  D_1  S_1  
     e( 17 - 17) =      4.24478  eV     1   --> B_1  D_3  S_3  

 **************************************************************************

 **************************************************************************

                    xk=(   0.00000,   0.03175,   0.00000  )

     Band symmetry, C_2v (mm2)  point group:

     e(  1 -  1) =    -53.91934  eV     1   --> A_1  D_1  S_1  
     e(  2 -  2) =    -29.99192  eV     1   --> B_2  D_4  S_4  
     e(  3 -  3) =    -29.89494  eV     1   --> A_1  D_1  S_1  
     e(  4 -  4) =    -29.89353  eV     1   --> B_1  D_3  S_3  
     e(  5 -  5) =    -12.37945  eV     1   --> A_1  D_1  S_1  
     e(  6 -  6) =    -11.42358  eV     1   --> B_2  D_4  S_4  
     e(  7 -  7) =     -3.65176  eV     1   --> A_1  D_1  S_1  
     e(  8 -  8) =     -0.71937  eV     1   --> A_1  D_1  S_1  
     e(  9 -  9) =     -0.68136  eV     1   --> B_1  D_3  S_3  
     e( 10 - 10) =     -0.25330  eV     1   --> B_2  D_4  S_4  
     e( 11 - 11) =      0.25807  eV     1   --> A_2  D_2  S_2  
     e( 12 - 12) =      0.29900  eV     1   --> B_2  D_4  S_4  
     e( 13 - 13) =      1.72989  eV     1   --> A_1  D_1  S_1  
     e( 14 - 14) =      4.04375  eV     1   --> B_2  D_4  S_4  
     e( 15 - 15) =      4.08588  eV     1   --> A_2  D_2  S_2  
     e( 16 - 16) =      4.21519  eV     1   --> A_1  D_1  S_1  
     e( 17 - 17) =      4.24278  eV     1   --> B_1  D_3  S_3  

 **************************************************************************

 **************************************************************************

                    xk=(   0.00000,   0.03464,   0.00000  )

     Band symmetry, C_2v (mm2)  point group:

     e(  1 -  1) =    -53.91931  eV     1   --> A_1  D_1  S_1  
     e(  2 -  2) =    -29.99184  eV     1   --> B_2  D_4  S_4  
     e(  3 -  3) =    -29.89528  eV     1   --> A_1  D_1  S_1  
     e(  4 -  4) =    -29.89361  eV     1   --> B_1  D_3  S_3  
     e(  5 -  5) =    -12.37785  eV     1   --> A_1  D_1  S_1  
     e(  6 -  6) =    -11.42286  eV     1   --> B_2  D_4  S_4  
     e(  7 -  7) =     -3.64959  eV     1   --> A_1  D_1  S_1  
     e(  8 -  8) =     -0.72492  eV     1   --> A_1  D_1  S_1  
     e(  9 -  9) =     -0.67974  eV     1   --> B_1  D_3  S_3  
     e( 10 - 10) =     -0.26080  eV     1   --> B_2  D_4  S_4  
     e( 11 - 11) =      0.25486  eV     1   --> A_2  D_2  S_2  
     e( 12 - 12) =      0.30300  eV     1   --> B_2  D_4  S_4  
     e( 13 - 13) =      1.72876  eV     1   --> A_1  D_1  S_1  
     e( 14 - 14) =      4.03948  eV     1   --> B_2  D_4  S_4  
     e( 15 - 15) =      4.08941  eV     1   --> A_2  D_2  S_2  
     e( 16 - 16) =      4.20808  eV     1   --> A_1  D_1  S_1  
     e( 17 - 17) =      4.24059  eV     1   --> B_1  D_3  S_3  

 **************************************************************************

 **************************************************************************

                    xk=(   0.00000,   0.03753,   0.00000  )

     Band symmetry, C_2v (mm2)  point group:

     e(  1 -  1) =    -53.91928  eV     1   --> A_1  D_1  S_1  
     e(  2 -  2) =    -29.99176  eV     1   --> B_2  D_4  S_4  
     e(  3 -  3) =    -29.89565  eV     1   --> A_1  D_1  S_1  
     e(  4 -  4) =    -29.89369  eV     1   --> B_1  D_3  S_3  
     e(  5 -  5) =    -12.37612  eV     1   --> A_1  D_1  S_1  
     e(  6 -  6) =    -11.42207  eV     1   --> B_2  D_4  S_4  
     e(  7 -  7) =     -3.64725  eV     1   --> A_1  D_1  S_1  
     e(  8 -  8) =     -0.73093  eV     1   --> A_1  D_1  S_1  
     e(  9 -  9) =     -0.67797  eV     1   --> B_1  D_3  S_3  
     e( 10 - 10) =     -0.26879  eV     1   --> B_2  D_4  S_4  
     e( 11 - 11) =      0.25137  eV     1   --> A_2  D_2  S_2  
     e( 12 - 12) =      0.30718  eV     1   --> B_2  D_4  S_4  
     e( 13 - 13) =      1.72752  eV     1   --> A_1  D_1  S_1  
     e( 14 - 14) =      4.03491  eV     1   --> B_2  D_4  S_4  
     e( 15 - 15) =      4.09322  eV     1   --> A_2  D_2  S_2  
     e( 16 - 16) =      4.20046  eV     1   --> A_1  D_1  S_1  
     e( 17 - 17) =      4.23821  eV     1   --> B_1  D_3  S_3  

 **************************************************************************

 **************************************************************************

                    xk=(   0.00000,   0.04041,   0.00000  )

     Band symmetry, C_2v (mm2)  point group:

     e(  1 -  1) =    -53.91925  eV     1   --> A_1  D_1  S_1  
     e(  2 -  2) =    -29.99168  eV     1   --> B_2  D_4  S_4  
     e(  3 -  3) =    -29.89606  eV     1   --> A_1  D_1  S_1  
     e(  4 -  4) =    -29.89378  eV     1   --> B_1  D_3  S_3  
     e(  5 -  5) =    -12.37425  eV     1   --> A_1  D_1  S_1  
     e(  6 -  6) =    -11.42122  eV     1   --> B_2  D_4  S_4  
     e(  7 -  7) =     -3.64472  eV     1   --> A_1  D_1  S_1  
     e(  8 -  8) =     -0.73741  eV     1   --> A_1  D_1  S_1  
     e(  9 -  9) =     -0.67607  eV     1   --> B_1  D_3  S_3  
     e( 10 - 10) =     -0.27724  eV     1   --> B_2  D_4  S_4  
     e( 11 - 11) =      0.24762  eV     1   --> A_2  D_2  S_2  
     e( 12 - 12) =      0.31151  eV     1   --> B_2  D_4  S_4  
     e( 13 - 13) =      1.72617  eV     1   --> A_1  D_1  S_1  
     e( 14 - 14) =      4.03004  eV     1   --> B_2  D_4  S_4  
     e( 15 - 15) =      4.09733  eV     1   --> A_2  D_2  S_2  
     e( 16 - 16) =      4.19236  eV     1   --> A_1  D_1  S_1  
     e( 17 - 17) =      4.23565  eV     1   --> B_1  D_3  S_3  

 **************************************************************************

 **************************************************************************

                    xk=(   0.00000,   0.04330,   0.00000  )

     Band symmetry, C_2v (mm2)  point group:

     e(  1 -  1) =    -53.91921  eV     1   --> A_1  D_1  S_1  
     e(  2 -  2) =    -29.99159  eV     1   --> B_2  D_4  S_4  
     e(  3 -  3) =    -29.89649  eV     1   --> A_1  D_1  S_1  
     e(  4 -  4) =    -29.89388  eV     1   --> B_1  D_3  S_3  
     e(  5 -  5) =    -12.37224  eV     1   --> A_1  D_1  S_1  
     e(  6 -  6) =    -11.42030  eV     1   --> B_2  D_4  S_4  
     e(  7 -  7) =     -3.64200  eV     1   --> A_1  D_1  S_1  
     e(  8 -  8) =     -0.74433  eV     1   --> A_1  D_1  S_1  
     e(  9 -  9) =     -0.67403  eV     1   --> B_1  D_3  S_3  
     e( 10 - 10) =     -0.28614  eV     1   --> B_2  D_4  S_4  
     e( 11 - 11) =      0.24361  eV     1   --> A_2  D_2  S_2  
     e( 12 - 12) =      0.31596  eV     1   --> B_2  D_4  S_4  
     e( 13 - 13) =      1.72471  eV     1   --> A_1  D_1  S_1  
     e( 14 - 14) =      4.02489  eV     1   --> B_2  D_4  S_4  
     e( 15 - 15) =      4.10173  eV     1   --> A_2  D_2  S_2  
     e( 16 - 16) =      4.18381  eV     1   --> A_1  D_1  S_1  
     e( 17 - 17) =      4.23292  eV     1   --> B_1  D_3  S_3  

 **************************************************************************

 **************************************************************************

                    xk=(   0.00000,   0.04619,   0.00000  )

     Band symmetry, C_2v (mm2)  point group:

     e(  1 -  1) =    -53.91918  eV     1   --> A_1  D_1  S_1  
     e(  2 -  2) =    -29.99149  eV     1   --> B_2  D_4  S_4  
     e(  3 -  3) =    -29.89695  eV     1   --> A_1  D_1  S_1  
     e(  4 -  4) =    -29.89399  eV     1   --> B_1  D_3  S_3  
     e(  5 -  5) =    -12.37010  eV     1   --> A_1  D_1  S_1  
     e(  6 -  6) =    -11.41933  eV     1   --> B_2  D_4  S_4  
     e(  7 -  7) =     -3.63910  eV     1   --> A_1  D_1  S_1  
     e(  8 -  8) =     -0.75171  eV     1   --> A_1  D_1  S_1  
     e(  9 -  9) =     -0.67185  eV     1   --> B_1  D_3  S_3  
     e( 10 - 10) =     -0.29545  eV     1   --> B_2  D_4  S_4  
     e( 11 - 11) =      0.23934  eV     1   --> A_2  D_2  S_2  
     e( 12 - 12) =      0.32051  eV     1   --> B_2  D_4  S_4  
     e( 13 - 13) =      1.72315  eV     1   --> A_1  D_1  S_1  
     e( 14 - 14) =      4.01948  eV     1   --> B_2  D_4  S_4  
     e( 15 - 15) =      4.10641  eV     1   --> A_2  D_2  S_2  
     e( 16 - 16) =      4.17483  eV     1   --> A_1  D_1  S_1  
     e( 17 - 17) =      4.23001  eV     1   --> B_1  D_3  S_3  

 **************************************************************************

 **************************************************************************

                    xk=(   0.00000,   0.04907,   0.00000  )

     Band symmetry, C_2v (mm2)  point group:

     e(  1 -  1) =    -53.91914  eV     1   --> A_1  D_1  S_1  
     e(  2 -  2) =    -29.99138  eV     1   --> B_2  D_4  S_4  
     e(  3 -  3) =    -29.89744  eV     1   --> A_1  D_1  S_1  
     e(  4 -  4) =    -29.89410  eV     1   --> B_1  D_3  S_3  
     e(  5 -  5) =    -12.36782  eV     1   --> A_1  D_1  S_1  
     e(  6 -  6) =    -11.41829  eV     1   --> B_2  D_4  S_4  
     e(  7 -  7) =     -3.63602  eV     1   --> A_1  D_1  S_1  
     e(  8 -  8) =     -0.75954  eV     1   --> A_1  D_1  S_1  
     e(  9 -  9) =     -0.66953  eV     1   --> B_1  D_3  S_3  
     e( 10 - 10) =     -0.30516  eV     1   --> B_2  D_4  S_4  
     e( 11 - 11) =      0.23481  eV     1   --> A_2  D_2  S_2  
     e( 12 - 12) =      0.32513  eV     1   --> B_2  D_4  S_4  
     e( 13 - 13) =      1.72146  eV     1   --> A_1  D_1  S_1  
     e( 14 - 14) =      4.01382  eV     1   --> B_2  D_4  S_4  
     e( 15 - 15) =      4.11138  eV     1   --> A_2  D_2  S_2  
     e( 16 - 16) =      4.16544  eV     1   --> A_1  D_1  S_1  
     e( 17 - 17) =      4.22692  eV     1   --> B_1  D_3  S_3  

 **************************************************************************

 **************************************************************************

                    xk=(   0.00000,   0.05196,   0.00000  )

     Band symmetry, C_2v (mm2)  point group:

     e(  1 -  1) =    -53.91909  eV     1   --> A_1  D_1  S_1  
     e(  2 -  2) =    -29.99127  eV     1   --> B_2  D_4  S_4  
     e(  3 -  3) =    -29.89796  eV     1   --> A_1  D_1  S_1  
     e(  4 -  4) =    -29.89421  eV     1   --> B_1  D_3  S_3  
     e(  5 -  5) =    -12.36540  eV     1   --> A_1  D_1  S_1  
     e(  6 -  6) =    -11.41719  eV     1   --> B_2  D_4  S_4  
     e(  7 -  7) =     -3.63275  eV     1   --> A_1  D_1  S_1  
     e(  8 -  8) =     -0.76780  eV     1   --> A_1  D_1  S_1  
     e(  9 -  9) =     -0.66707  eV     1   --> B_1  D_3  S_3  
     e( 10 - 10) =     -0.31524  eV     1   --> B_2  D_4  S_4  
     e( 11 - 11) =      0.23003  eV     1   --> A_2  D_2  S_2  
     e( 12 - 12) =      0.32979  eV     1   --> B_2  D_4  S_4  
     e( 13 - 13) =      1.71967  eV     1   --> A_1  D_1  S_1  
     e( 14 - 14) =      4.00794  eV     1   --> B_2  D_4  S_4  
     e( 15 - 15) =      4.11661  eV     1   --> A_2  D_2  S_2  
     e( 16 - 16) =      4.15568  eV     1   --> A_1  D_1  S_1  
     e( 17 - 17) =      4.22365  eV     1   --> B_1  D_3  S_3  

 **************************************************************************

 **************************************************************************

                    xk=(   0.00000,   0.05485,   0.00000  )

     Band symmetry, C_2v (mm2)  point group:

     e(  1 -  1) =    -53.91905  eV     1   --> A_1  D_1  S_1  
     e(  2 -  2) =    -29.99116  eV     1   --> B_2  D_4  S_4  
     e(  3 -  3) =    -29.89850  eV     1   --> A_1  D_1  S_1  
     e(  4 -  4) =    -29.89434  eV     1   --> B_1  D_3  S_3  
     e(  5 -  5) =    -12.36285  eV     1   --> A_1  D_1  S_1  
     e(  6 -  6) =    -11.41603  eV     1   --> B_2  D_4  S_4  
     e(  7 -  7) =     -3.62930  eV     1   --> A_1  D_1  S_1  
     e(  8 -  8) =     -0.77650  eV     1   --> A_1  D_1  S_1  
     e(  9 -  9) =     -0.66448  eV     1   --> B_1  D_3  S_3  
     e( 10 - 10) =     -0.32566  eV     1   --> B_2  D_4  S_4  
     e( 11 - 11) =      0.22500  eV     1   --> A_2  D_2  S_2  
     e( 12 - 12) =      0.33447  eV     1   --> B_2  D_4  S_4  
     e( 13 - 13) =      1.71775  eV     1   --> A_1  D_1  S_1  
     e( 14 - 14) =      4.00185  eV     1   --> B_2  D_4  S_4  
     e( 15 - 15) =      4.12212  eV     1   --> A_2  D_2  S_2  
     e( 16 - 16) =      4.14556  eV     1   --> A_1  D_1  S_1  
     e( 17 - 17) =      4.22022  eV     1   --> B_1  D_3  S_3  

 **************************************************************************

 **************************************************************************

                    xk=(   0.00000,   0.05774,   0.00000  )

     Band symmetry, C_2v (mm2)  point group:

     e(  1 -  1) =    -53.91900  eV     1   --> A_1  D_1  S_1  
     e(  2 -  2) =    -29.99103  eV     1   --> B_2  D_4  S_4  
     e(  3 -  3) =    -29.89908  eV     1   --> A_1  D_1  S_1  
     e(  4 -  4) =    -29.89447  eV     1   --> B_1  D_3  S_3  
     e(  5 -  5) =    -12.36016  eV     1   --> A_1  D_1  S_1  
     e(  6 -  6) =    -11.41481  eV     1   --> B_2  D_4  S_4  
     e(  7 -  7) =     -3.62567  eV     1   --> A_1  D_1  S_1  
     e(  8 -  8) =     -0.78563  eV     1   --> A_1  D_1  S_1  
     e(  9 -  9) =     -0.66175  eV     1   --> B_1  D_3  S_3  
     e( 10 - 10) =     -0.33642  eV     1   --> B_2  D_4  S_4  
     e( 11 - 11) =      0.21972  eV     1   --> A_2  D_2  S_2  
     e( 12 - 12) =      0.33915  eV     1   --> B_2  D_4  S_4  
     e( 13 - 13) =      1.71571  eV     1   --> A_1  D_1  S_1  
     e( 14 - 14) =      3.99557  eV     1   --> B_2  D_4  S_4  
     e( 15 - 15) =      4.12790  eV     1   --> A_2  D_2  S_2  
     e( 16 - 16) =      4.13512  eV     1   --> A_1  D_1  S_1  
     e( 17 - 17) =      4.21662  eV     1   --> B_1  D_3  S_3  

 **************************************************************************

 **************************************************************************

                    xk=(   0.00000,   0.06062,   0.00000  )

     Band symmetry, C_2v (mm2)  point group:

     e(  1 -  1) =    -53.91895  eV     1   --> A_1  D_1  S_1  
     e(  2 -  2) =    -29.99090  eV     1   --> B_2  D_4  S_4  
     e(  3 -  3) =    -29.89969  eV     1   --> A_1  D_1  S_1  
     e(  4 -  4) =    -29.89460  eV     1   --> B_1  D_3  S_3  
     e(  5 -  5) =    -12.35734  eV     1   --> A_1  D_1  S_1  
     e(  6 -  6) =    -11.41352  eV     1   --> B_2  D_4  S_4  
     e(  7 -  7) =     -3.62186  eV     1   --> A_1  D_1  S_1  
     e(  8 -  8) =     -0.79518  eV     1   --> A_1  D_1  S_1  
     e(  9 -  9) =     -0.65889  eV     1   --> B_1  D_3  S_3  
     e( 10 - 10) =     -0.34748  eV     1   --> B_2  D_4  S_4  
     e( 11 - 11) =      0.21420  eV     1   --> A_2  D_2  S_2  
     e( 12 - 12) =      0.34380  eV     1   --> B_2  D_4  S_4  
     e( 13 - 13) =      1.71355  eV     1   --> A_1  D_1  S_1  
     e( 14 - 14) =      3.98912  eV     1   --> B_2  D_4  S_4  
     e( 15 - 15) =      4.12437  eV     1   --> A_1  D_1  S_1  
     e( 16 - 16) =      4.13395  eV     1   --> A_2  D_2  S_2  
     e( 17 - 17) =      4.21285  eV     1   --> B_1  D_3  S_3  

 **************************************************************************

 **************************************************************************

                    xk=(   0.00000,   0.06351,   0.00000  )

     Band symmetry, C_2v (mm2)  point group:

     e(  1 -  1) =    -53.91890  eV     1   --> A_1  D_1  S_1  
     e(  2 -  2) =    -29.99077  eV     1   --> B_2  D_4  S_4  
     e(  3 -  3) =    -29.90032  eV     1   --> A_1  D_1  S_1  
     e(  4 -  4) =    -29.89475  eV     1   --> B_1  D_3  S_3  
     e(  5 -  5) =    -12.35439  eV     1   --> A_1  D_1  S_1  
     e(  6 -  6) =    -11.41218  eV     1   --> B_2  D_4  S_4  
     e(  7 -  7) =     -3.61788  eV     1   --> A_1  D_1  S_1  
     e(  8 -  8) =     -0.80514  eV     1   --> A_1  D_1  S_1  
     e(  9 -  9) =     -0.65589  eV     1   --> B_1  D_3  S_3  
     e( 10 - 10) =     -0.35884  eV     1   --> B_2  D_4  S_4  
     e( 11 - 11) =      0.20844  eV     1   --> A_2  D_2  S_2  
     e( 12 - 12) =      0.34840  eV     1   --> B_2  D_4  S_4  
     e( 13 - 13) =      1.71126  eV     1   --> A_1  D_1  S_1  
     e( 14 - 14) =      3.98252  eV     1   --> B_2  D_4  S_4  
     e( 15 - 15) =      4.11335  eV     1   --> A_1  D_1  S_1  
     e( 16 - 16) =      4.14025  eV     1   --> A_2  D_2  S_2  
     e( 17 - 17) =      4.20892  eV     1   --> B_1  D_3  S_3  

 **************************************************************************

 **************************************************************************

                    xk=(   0.00000,   0.06640,   0.00000  )

     Band symmetry, C_2v (mm2)  point group:

     e(  1 -  1) =    -53.91885  eV     1   --> A_1  D_1  S_1  
     e(  2 -  2) =    -29.99063  eV     1   --> B_2  D_4  S_4  
     e(  3 -  3) =    -29.90098  eV     1   --> A_1  D_1  S_1  
     e(  4 -  4) =    -29.89490  eV     1   --> B_1  D_3  S_3  
     e(  5 -  5) =    -12.35129  eV     1   --> A_1  D_1  S_1  
     e(  6 -  6) =    -11.41077  eV     1   --> B_2  D_4  S_4  
     e(  7 -  7) =     -3.61371  eV     1   --> A_1  D_1  S_1  
     e(  8 -  8) =     -0.81551  eV     1   --> A_1  D_1  S_1  
     e(  9 -  9) =     -0.65275  eV     1   --> B_1  D_3  S_3  
     e( 10 - 10) =     -0.37047  eV     1   --> B_2  D_4  S_4  
     e( 11 - 11) =      0.20244  eV     1   --> A_2  D_2  S_2  
     e( 12 - 12) =      0.35294  eV     1   --> B_2  D_4  S_4  
     e( 13 - 13) =      1.70884  eV     1   --> A_1  D_1  S_1  
     e( 14 - 14) =      3.97578  eV     1   --> B_2  D_4  S_4  
     e( 15 - 15) =      4.10208  eV     1   --> A_1  D_1  S_1  
     e( 16 - 16) =      4.14681  eV     1   --> A_2  D_2  S_2  
     e( 17 - 17) =      4.20483  eV     1   --> B_1  D_3  S_3  

 **************************************************************************

 **************************************************************************

                    xk=(   0.00000,   0.06928,   0.00000  )

     Band symmetry, C_2v (mm2)  point group:

     e(  1 -  1) =    -53.91879  eV     1   --> A_1  D_1  S_1  
     e(  2 -  2) =    -29.99048  eV     1   --> B_2  D_4  S_4  
     e(  3 -  3) =    -29.90167  eV     1   --> A_1  D_1  S_1  
     e(  4 -  4) =    -29.89505  eV     1   --> B_1  D_3  S_3  
     e(  5 -  5) =    -12.34807  eV     1   --> A_1  D_1  S_1  
     e(  6 -  6) =    -11.40930  eV     1   --> B_2  D_4  S_4  
     e(  7 -  7) =     -3.60937  eV     1   --> A_1  D_1  S_1  
     e(  8 -  8) =     -0.82629  eV     1   --> A_1  D_1  S_1  
     e(  9 -  9) =     -0.64948  eV     1   --> B_1  D_3  S_3  
     e( 10 - 10) =     -0.38237  eV     1   --> B_2  D_4  S_4  
     e( 11 - 11) =      0.19621  eV     1   --> A_2  D_2  S_2  
     e( 12 - 12) =      0.35740  eV     1   --> B_2  D_4  S_4  
     e( 13 - 13) =      1.70629  eV     1   --> A_1  D_1  S_1  
     e( 14 - 14) =      3.96894  eV     1   --> B_2  D_4  S_4  
     e( 15 - 15) =      4.09057  eV     1   --> A_1  D_1  S_1  
     e( 16 - 16) =      4.15362  eV     1   --> A_2  D_2  S_2  
     e( 17 - 17) =      4.20058  eV     1   --> B_1  D_3  S_3  

 **************************************************************************

 **************************************************************************

                    xk=(   0.00000,   0.07217,   0.00000  )

     Band symmetry, C_2v (mm2)  point group:

     e(  1 -  1) =    -53.91873  eV     1   --> A_1  D_1  S_1  
     e(  2 -  2) =    -29.99033  eV     1   --> B_2  D_4  S_4  
     e(  3 -  3) =    -29.90239  eV     1   --> A_1  D_1  S_1  
     e(  4 -  4) =    -29.89521  eV     1   --> B_1  D_3  S_3  
     e(  5 -  5) =    -12.34471  eV     1   --> A_1  D_1  S_1  
     e(  6 -  6) =    -11.40777  eV     1   --> B_2  D_4  S_4  
     e(  7 -  7) =     -3.60485  eV     1   --> A_1  D_1  S_1  
     e(  8 -  8) =     -0.83746  eV     1   --> A_1  D_1  S_1  
     e(  9 -  9) =     -0.64608  eV     1   --> B_1  D_3  S_3  
     e( 10 - 10) =     -0.39451  eV     1   --> B_2  D_4  S_4  
     e( 11 - 11) =      0.18976  eV     1   --> A_2  D_2  S_2  
     e( 12 - 12) =      0.36176  eV     1   --> B_2  D_4  S_4  
     e( 13 - 13) =      1.70360  eV     1   --> A_1  D_1  S_1  
     e( 14 - 14) =      3.96201  eV     1   --> B_2  D_4  S_4  
     e( 15 - 15) =      4.07886  eV     1   --> A_1  D_1  S_1  
     e( 16 - 16) =      4.16067  eV     1   --> A_2  D_2  S_2  
     e( 17 - 17) =      4.19618  eV     1   --> B_1  D_3  S_3  

 **************************************************************************

 **************************************************************************

                    xk=(   0.00000,   0.07506,   0.00000  )

     Band symmetry, C_2v (mm2)  point group:

     e(  1 -  1) =    -53.91867  eV     1   --> A_1  D_1  S_1  
     e(  2 -  2) =    -29.99017  eV     1   --> B_2  D_4  S_4  
     e(  3 -  3) =    -29.90313  eV     1   --> A_1  D_1  S_1  
     e(  4 -  4) =    -29.89538  eV     1   --> B_1  D_3  S_3  
     e(  5 -  5) =    -12.34122  eV     1   --> A_1  D_1  S_1  
     e(  6 -  6) =    -11.40619  eV     1   --> B_2  D_4  S_4  
     e(  7 -  7) =     -3.60016  eV     1   --> A_1  D_1  S_1  
     e(  8 -  8) =     -0.84902  eV     1   --> A_1  D_1  S_1  
     e(  9 -  9) =     -0.64255  eV     1   --> B_1  D_3  S_3  
     e( 10 - 10) =     -0.40689  eV     1   --> B_2  D_4  S_4  
     e( 11 - 11) =      0.18309  eV     1   --> A_2  D_2  S_2  
     e( 12 - 12) =      0.36600  eV     1   --> B_2  D_4  S_4  
     e( 13 - 13) =      1.70077  eV     1   --> A_1  D_1  S_1  
     e( 14 - 14) =      3.95500  eV     1   --> B_2  D_4  S_4  
     e( 15 - 15) =      4.06697  eV     1   --> A_1  D_1  S_1  
     e( 16 - 16) =      4.16796  eV     1   --> A_2  D_2  S_2  
     e( 17 - 17) =      4.19162  eV     1   --> B_1  D_3  S_3  

 **************************************************************************

 **************************************************************************

                    xk=(   0.00000,   0.07794,   0.00000  )

     Band symmetry, C_2v (mm2)  point group:

     e(  1 -  1) =    -53.91861  eV     1   --> A_1  D_1  S_1  
     e(  2 -  2) =    -29.99000  eV     1   --> B_2  D_4  S_4  
     e(  3 -  3) =    -29.90390  eV     1   --> A_1  D_1  S_1  
     e(  4 -  4) =    -29.89556  eV     1   --> B_1  D_3  S_3  
     e(  5 -  5) =    -12.33760  eV     1   --> A_1  D_1  S_1  
     e(  6 -  6) =    -11.40454  eV     1   --> B_2  D_4  S_4  
     e(  7 -  7) =     -3.59529  eV     1   --> A_1  D_1  S_1  
     e(  8 -  8) =     -0.86096  eV     1   --> A_1  D_1  S_1  
     e(  9 -  9) =     -0.63888  eV     1   --> B_1  D_3  S_3  
     e( 10 - 10) =     -0.41950  eV     1   --> B_2  D_4  S_4  
     e( 11 - 11) =      0.17620  eV     1   --> A_2  D_2  S_2  
     e( 12 - 12) =      0.37011  eV     1   --> B_2  D_4  S_4  
     e( 13 - 13) =      1.69781  eV     1   --> A_1  D_1  S_1  
     e( 14 - 14) =      3.94795  eV     1   --> B_2  D_4  S_4  
     e( 15 - 15) =      4.05492  eV     1   --> A_1  D_1  S_1  
     e( 16 - 16) =      4.17549  eV     1   --> A_2  D_2  S_2  
     e( 17 - 17) =      4.18692  eV     1   --> B_1  D_3  S_3  

 **************************************************************************

 **************************************************************************

                    xk=(   0.00000,   0.08083,   0.00000  )

     Band symmetry, C_2v (mm2)  point group:

     e(  1 -  1) =    -53.91854  eV     1   --> A_1  D_1  S_1  
     e(  2 -  2) =    -29.98983  eV     1   --> B_2  D_4  S_4  
     e(  3 -  3) =    -29.90470  eV     1   --> A_1  D_1  S_1  
     e(  4 -  4) =    -29.89574  eV     1   --> B_1  D_3  S_3  
     e(  5 -  5) =    -12.33385  eV     1   --> A_1  D_1  S_1  
     e(  6 -  6) =    -11.40283  eV     1   --> B_2  D_4  S_4  
     e(  7 -  7) =     -3.59025  eV     1   --> A_1  D_1  S_1  
     e(  8 -  8) =     -0.87327  eV     1   --> A_1  D_1  S_1  
     e(  9 -  9) =     -0.63509  eV     1   --> B_1  D_3  S_3  
     e( 10 - 10) =     -0.43232  eV     1   --> B_2  D_4  S_4  
     e( 11 - 11) =      0.16909  eV     1   --> A_2  D_2  S_2  
     e( 12 - 12) =      0.37408  eV     1   --> B_2  D_4  S_4  
     e( 13 - 13) =      1.69469  eV     1   --> A_1  D_1  S_1  
     e( 14 - 14) =      3.94086  eV     1   --> B_2  D_4  S_4  
     e( 15 - 15) =      4.04272  eV     1   --> A_1  D_1  S_1  
     e( 16 - 16) =      4.18208  eV     1   --> B_1  D_3  S_3  
     e( 17 - 17) =      4.18325  eV     1   --> A_2  D_2  S_2  

 **************************************************************************

 **************************************************************************

                    xk=(   0.00000,   0.08372,   0.00000  )

     Band symmetry, C_2v (mm2)  point group:

     e(  1 -  1) =    -53.91848  eV     1   --> A_1  D_1  S_1  
     e(  2 -  2) =    -29.98966  eV     1   --> B_2  D_4  S_4  
     e(  3 -  3) =    -29.90553  eV     1   --> A_1  D_1  S_1  
     e(  4 -  4) =    -29.89592  eV     1   --> B_1  D_3  S_3  
     e(  5 -  5) =    -12.32996  eV     1   --> A_1  D_1  S_1  
     e(  6 -  6) =    -11.40106  eV     1   --> B_2  D_4  S_4  
     e(  7 -  7) =     -3.58505  eV     1   --> A_1  D_1  S_1  
     e(  8 -  8) =     -0.88595  eV     1   --> A_1  D_1  S_1  
     e(  9 -  9) =     -0.63116  eV     1   --> B_1  D_3  S_3  
     e( 10 - 10) =     -0.44534  eV     1   --> B_2  D_4  S_4  
     e( 11 - 11) =      0.16178  eV     1   --> A_2  D_2  S_2  
     e( 12 - 12) =      0.37789  eV     1   --> B_2  D_4  S_4  
     e( 13 - 13) =      1.69143  eV     1   --> A_1  D_1  S_1  
     e( 14 - 14) =      3.93377  eV     1   --> B_2  D_4  S_4  
     e( 15 - 15) =      4.03041  eV     1   --> A_1  D_1  S_1  
     e( 16 - 16) =      4.17709  eV     1   --> B_1  D_3  S_3  
     e( 17 - 17) =      4.19123  eV     1   --> A_2  D_2  S_2  

 **************************************************************************

 **************************************************************************

                    xk=(   0.00000,   0.08660,   0.00000  )

     Band symmetry, C_2v (mm2)  point group:

     e(  1 -  1) =    -53.91841  eV     1   --> A_1  D_1  S_1  
     e(  2 -  2) =    -29.98948  eV     1   --> B_2  D_4  S_4  
     e(  3 -  3) =    -29.90638  eV     1   --> A_1  D_1  S_1  
     e(  4 -  4) =    -29.89612  eV     1   --> B_1  D_3  S_3  
     e(  5 -  5) =    -12.32594  eV     1   --> A_1  D_1  S_1  
     e(  6 -  6) =    -11.39923  eV     1   --> B_2  D_4  S_4  
     e(  7 -  7) =     -3.57967  eV     1   --> A_1  D_1  S_1  
     e(  8 -  8) =     -0.89899  eV     1   --> A_1  D_1  S_1  
     e(  9 -  9) =     -0.62711  eV     1   --> B_1  D_3  S_3  
     e( 10 - 10) =     -0.45855  eV     1   --> B_2  D_4  S_4  
     e( 11 - 11) =      0.15426  eV     1   --> A_2  D_2  S_2  
     e( 12 - 12) =      0.38153  eV     1   --> B_2  D_4  S_4  
     e( 13 - 13) =      1.68802  eV     1   --> A_1  D_1  S_1  
     e( 14 - 14) =      3.92668  eV     1   --> B_2  D_4  S_4  
     e( 15 - 15) =      4.01800  eV     1   --> A_1  D_1  S_1  
     e( 16 - 16) =      4.17196  eV     1   --> B_1  D_3  S_3  
     e( 17 - 17) =      4.19943  eV     1   --> A_2  D_2  S_2  

 **************************************************************************

 **************************************************************************

                    xk=(   0.00000,   0.08949,   0.00000  )

     Band symmetry, C_2v (mm2)  point group:

     e(  1 -  1) =    -53.91833  eV     1   --> A_1  D_1  S_1  
     e(  2 -  2) =    -29.98929  eV     1   --> B_2  D_4  S_4  
     e(  3 -  3) =    -29.90726  eV     1   --> A_1  D_1  S_1  
     e(  4 -  4) =    -29.89632  eV     1   --> B_1  D_3  S_3  
     e(  5 -  5) =    -12.32180  eV     1   --> A_1  D_1  S_1  
     e(  6 -  6) =    -11.39734  eV     1   --> B_2  D_4  S_4  
     e(  7 -  7) =     -3.57412  eV     1   --> A_1  D_1  S_1  
     e(  8 -  8) =     -0.91238  eV     1   --> A_1  D_1  S_1  
     e(  9 -  9) =     -0.62293  eV     1   --> B_1  D_3  S_3  
     e( 10 - 10) =     -0.47196  eV     1   --> B_2  D_4  S_4  
     e( 11 - 11) =      0.14654  eV     1   --> A_2  D_2  S_2  
     e( 12 - 12) =      0.38499  eV     1   --> B_2  D_4  S_4  
     e( 13 - 13) =      1.68445  eV     1   --> A_1  D_1  S_1  
     e( 14 - 14) =      3.91963  eV     1   --> B_2  D_4  S_4  
     e( 15 - 15) =      4.00552  eV     1   --> A_1  D_1  S_1  
     e( 16 - 16) =      4.16670  eV     1   --> B_1  D_3  S_3  
     e( 17 - 17) =      4.20785  eV     1   --> A_2  D_2  S_2  

 **************************************************************************

 **************************************************************************

                    xk=(   0.00000,   0.09238,   0.00000  )

     Band symmetry, C_2v (mm2)  point group:

     e(  1 -  1) =    -53.91826  eV     1   --> A_1  D_1  S_1  
     e(  2 -  2) =    -29.98909  eV     1   --> B_2  D_4  S_4  
     e(  3 -  3) =    -29.90817  eV     1   --> A_1  D_1  S_1  
     e(  4 -  4) =    -29.89652  eV     1   --> B_1  D_3  S_3  
     e(  5 -  5) =    -12.31752  eV     1   --> A_1  D_1  S_1  
     e(  6 -  6) =    -11.39540  eV     1   --> B_2  D_4  S_4  
     e(  7 -  7) =     -3.56841  eV     1   --> A_1  D_1  S_1  
     e(  8 -  8) =     -0.92611  eV     1   --> A_1  D_1  S_1  
     e(  9 -  9) =     -0.61862  eV     1   --> B_1  D_3  S_3  
     e( 10 - 10) =     -0.48554  eV     1   --> B_2  D_4  S_4  
     e( 11 - 11) =      0.13863  eV     1   --> A_2  D_2  S_2  
     e( 12 - 12) =      0.38826  eV     1   --> B_2  D_4  S_4  
     e( 13 - 13) =      1.68073  eV     1   --> A_1  D_1  S_1  
     e( 14 - 14) =      3.91262  eV     1   --> B_2  D_4  S_4  
     e( 15 - 15) =      3.99298  eV     1   --> A_1  D_1  S_1  
     e( 16 - 16) =      4.16131  eV     1   --> B_1  D_3  S_3  
     e( 17 - 17) =      4.21647  eV     1   --> A_2  D_2  S_2  

 **************************************************************************

 **************************************************************************

                    xk=(   0.00000,   0.09526,   0.00000  )

     Band symmetry, C_2v (mm2)  point group:

     e(  1 -  1) =    -53.91818  eV     1   --> A_1  D_1  S_1  
     e(  2 -  2) =    -29.98890  eV     1   --> B_2  D_4  S_4  
     e(  3 -  3) =    -29.90910  eV     1   --> A_1  D_1  S_1  
     e(  4 -  4) =    -29.89673  eV     1   --> B_1  D_3  S_3  
     e(  5 -  5) =    -12.31312  eV     1   --> A_1  D_1  S_1  
     e(  6 -  6) =    -11.39339  eV     1   --> B_2  D_4  S_4  
     e(  7 -  7) =     -3.56253  eV     1   --> A_1  D_1  S_1  
     e(  8 -  8) =     -0.94017  eV     1   --> A_1  D_1  S_1  
     e(  9 -  9) =     -0.61418  eV     1   --> B_1  D_3  S_3  
     e( 10 - 10) =     -0.49929  eV     1   --> B_2  D_4  S_4  
     e( 11 - 11) =      0.13053  eV     1   --> A_2  D_2  S_2  
     e( 12 - 12) =      0.39133  eV     1   --> B_2  D_4  S_4  
     e( 13 - 13) =      1.67684  eV     1   --> A_1  D_1  S_1  
     e( 14 - 14) =      3.90568  eV     1   --> B_2  D_4  S_4  
     e( 15 - 15) =      3.98039  eV     1   --> A_1  D_1  S_1  
     e( 16 - 16) =      4.15579  eV     1   --> B_1  D_3  S_3  
     e( 17 - 17) =      4.22529  eV     1   --> A_2  D_2  S_2  

 **************************************************************************

 **************************************************************************

                    xk=(   0.00000,   0.09815,   0.00000  )

     Band symmetry, C_2v (mm2)  point group:

     e(  1 -  1) =    -53.91811  eV     1   --> A_1  D_1  S_1  
     e(  2 -  2) =    -29.98869  eV     1   --> B_2  D_4  S_4  
     e(  3 -  3) =    -29.91006  eV     1   --> A_1  D_1  S_1  
     e(  4 -  4) =    -29.89695  eV     1   --> B_1  D_3  S_3  
     e(  5 -  5) =    -12.30859  eV     1   --> A_1  D_1  S_1  
     e(  6 -  6) =    -11.39133  eV     1   --> B_2  D_4  S_4  
     e(  7 -  7) =     -3.55649  eV     1   --> A_1  D_1  S_1  
     e(  8 -  8) =     -0.95456  eV     1   --> A_1  D_1  S_1  
     e(  9 -  9) =     -0.60962  eV     1   --> B_1  D_3  S_3  
     e( 10 - 10) =     -0.51320  eV     1   --> B_2  D_4  S_4  
     e( 11 - 11) =      0.12224  eV     1   --> A_2  D_2  S_2  
     e( 12 - 12) =      0.39419  eV     1   --> B_2  D_4  S_4  
     e( 13 - 13) =      1.67279  eV     1   --> A_1  D_1  S_1  
     e( 14 - 14) =      3.89883  eV     1   --> B_2  D_4  S_4  
     e( 15 - 15) =      3.96779  eV     1   --> A_1  D_1  S_1  
     e( 16 - 16) =      4.15015  eV     1   --> B_1  D_3  S_3  
     e( 17 - 17) =      4.23431  eV     1   --> A_2  D_2  S_2  

 **************************************************************************

 **************************************************************************

                    xk=(   0.00000,   0.10104,   0.00000  )

     Band symmetry, C_2v (mm2)  point group:

     e(  1 -  1) =    -53.91803  eV     1   --> A_1  D_1  S_1  
     e(  2 -  2) =    -29.98848  eV     1   --> B_2  D_4  S_4  
     e(  3 -  3) =    -29.91104  eV     1   --> A_1  D_1  S_1  
     e(  4 -  4) =    -29.89717  eV     1   --> B_1  D_3  S_3  
     e(  5 -  5) =    -12.30393  eV     1   --> A_1  D_1  S_1  
     e(  6 -  6) =    -11.38921  eV     1   --> B_2  D_4  S_4  
     e(  7 -  7) =     -3.55029  eV     1   --> A_1  D_1  S_1  
     e(  8 -  8) =     -0.96927  eV     1   --> A_1  D_1  S_1  
     e(  9 -  9) =     -0.60494  eV     1   --> B_1  D_3  S_3  
     e( 10 - 10) =     -0.52728  eV     1   --> B_2  D_4  S_4  
     e( 11 - 11) =      0.11378  eV     1   --> A_2  D_2  S_2  
     e( 12 - 12) =      0.39683  eV     1   --> B_2  D_4  S_4  
     e( 13 - 13) =      1.66857  eV     1   --> A_1  D_1  S_1  
     e( 14 - 14) =      3.89209  eV     1   --> B_2  D_4  S_4  
     e( 15 - 15) =      3.95518  eV     1   --> A_1  D_1  S_1  
     e( 16 - 16) =      4.14438  eV     1   --> B_1  D_3  S_3  
     e( 17 - 17) =      4.24352  eV     1   --> A_2  D_2  S_2  

 **************************************************************************

 **************************************************************************

                    xk=(   0.00000,   0.10392,   0.00000  )

     Band symmetry, C_2v (mm2)  point group:

     e(  1 -  1) =    -53.91794  eV     1   --> A_1  D_1  S_1  
     e(  2 -  2) =    -29.98827  eV     1   --> B_2  D_4  S_4  
     e(  3 -  3) =    -29.91205  eV     1   --> A_1  D_1  S_1  
     e(  4 -  4) =    -29.89740  eV     1   --> B_1  D_3  S_3  
     e(  5 -  5) =    -12.29915  eV     1   --> A_1  D_1  S_1  
     e(  6 -  6) =    -11.38703  eV     1   --> B_2  D_4  S_4  
     e(  7 -  7) =     -3.54392  eV     1   --> A_1  D_1  S_1  
     e(  8 -  8) =     -0.98429  eV     1   --> A_1  D_1  S_1  
     e(  9 -  9) =     -0.60013  eV     1   --> B_1  D_3  S_3  
     e( 10 - 10) =     -0.54151  eV     1   --> B_2  D_4  S_4  
     e( 11 - 11) =      0.10513  eV     1   --> A_2  D_2  S_2  
     e( 12 - 12) =      0.39924  eV     1   --> B_2  D_4  S_4  
     e( 13 - 13) =      1.66418  eV     1   --> A_1  D_1  S_1  
     e( 14 - 14) =      3.88547  eV     1   --> B_2  D_4  S_4  
     e( 15 - 15) =      3.94259  eV     1   --> A_1  D_1  S_1  
     e( 16 - 16) =      4.13851  eV     1   --> B_1  D_3  S_3  
     e( 17 - 17) =      4.25292  eV     1   --> A_2  D_2  S_2  

 **************************************************************************

 **************************************************************************

                    xk=(   0.00000,   0.10681,   0.00000  )

     Band symmetry, C_2v (mm2)  point group:

     e(  1 -  1) =    -53.91786  eV     1   --> A_1  D_1  S_1  
     e(  2 -  2) =    -29.98804  eV     1   --> B_2  D_4  S_4  
     e(  3 -  3) =    -29.91308  eV     1   --> A_1  D_1  S_1  
     e(  4 -  4) =    -29.89763  eV     1   --> B_1  D_3  S_3  
     e(  5 -  5) =    -12.29424  eV     1   --> A_1  D_1  S_1  
     e(  6 -  6) =    -11.38480  eV     1   --> B_2  D_4  S_4  
     e(  7 -  7) =     -3.53740  eV     1   --> A_1  D_1  S_1  
     e(  8 -  8) =     -0.99961  eV     1   --> A_1  D_1  S_1  
     e(  9 -  9) =     -0.59520  eV     1   --> B_1  D_3  S_3  
     e( 10 - 10) =     -0.55588  eV     1   --> B_2  D_4  S_4  
     e( 11 - 11) =      0.09632  eV     1   --> A_2  D_2  S_2  
     e( 12 - 12) =      0.40142  eV     1   --> B_2  D_4  S_4  
     e( 13 - 13) =      1.65961  eV     1   --> A_1  D_1  S_1  
     e( 14 - 14) =      3.87899  eV     1   --> B_2  D_4  S_4  
     e( 15 - 15) =      3.93002  eV     1   --> A_1  D_1  S_1  
     e( 16 - 16) =      4.13252  eV     1   --> B_1  D_3  S_3  
     e( 17 - 17) =      4.26249  eV     1   --> A_2  D_2  S_2  

 **************************************************************************

 **************************************************************************

                    xk=(   0.00000,   0.10970,   0.00000  )

     Band symmetry, C_2v (mm2)  point group:

     e(  1 -  1) =    -53.91777  eV     1   --> A_1  D_1  S_1  
     e(  2 -  2) =    -29.98782  eV     1   --> B_2  D_4  S_4  
     e(  3 -  3) =    -29.91414  eV     1   --> A_1  D_1  S_1  
     e(  4 -  4) =    -29.89787  eV     1   --> B_1  D_3  S_3  
     e(  5 -  5) =    -12.28920  eV     1   --> A_1  D_1  S_1  
     e(  6 -  6) =    -11.38251  eV     1   --> B_2  D_4  S_4  
     e(  7 -  7) =     -3.53073  eV     1   --> A_1  D_1  S_1  
     e(  8 -  8) =     -1.01522  eV     1   --> A_1  D_1  S_1  
     e(  9 -  9) =     -0.59015  eV     1   --> B_1  D_3  S_3  
     e( 10 - 10) =     -0.57040  eV     1   --> B_2  D_4  S_4  
     e( 11 - 11) =      0.08735  eV     1   --> A_2  D_2  S_2  
     e( 12 - 12) =      0.40336  eV     1   --> B_2  D_4  S_4  
     e( 13 - 13) =      1.65487  eV     1   --> A_1  D_1  S_1  
     e( 14 - 14) =      3.87267  eV     1   --> B_2  D_4  S_4  
     e( 15 - 15) =      3.91750  eV     1   --> A_1  D_1  S_1  
     e( 16 - 16) =      4.12642  eV     1   --> B_1  D_3  S_3  
     e( 17 - 17) =      4.27224  eV     1   --> A_2  D_2  S_2  

 **************************************************************************

 **************************************************************************

                    xk=(   0.00000,   0.11258,   0.00000  )

     Band symmetry, C_2v (mm2)  point group:

     e(  1 -  1) =    -53.91768  eV     1   --> A_1  D_1  S_1  
     e(  2 -  2) =    -29.98759  eV     1   --> B_2  D_4  S_4  
     e(  3 -  3) =    -29.91522  eV     1   --> A_1  D_1  S_1  
     e(  4 -  4) =    -29.89812  eV     1   --> B_1  D_3  S_3  
     e(  5 -  5) =    -12.28404  eV     1   --> A_1  D_1  S_1  
     e(  6 -  6) =    -11.38016  eV     1   --> B_2  D_4  S_4  
     e(  7 -  7) =     -3.52390  eV     1   --> A_1  D_1  S_1  
     e(  8 -  8) =     -1.03112  eV     1   --> A_1  D_1  S_1  
     e(  9 - 10) =     -0.58506  eV     2   --> B_1  D_3  S_3  
     e(  9 - 10) =     -0.58506  eV     2   --> B_2  D_4  S_4  
     e( 11 - 11) =      0.07821  eV     1   --> A_2  D_2  S_2  
     e( 12 - 12) =      0.40506  eV     1   --> B_2  D_4  S_4  
     e( 13 - 13) =      1.64995  eV     1   --> A_1  D_1  S_1  
     e( 14 - 14) =      3.86653  eV     1   --> B_2  D_4  S_4  
     e( 15 - 15) =      3.90504  eV     1   --> A_1  D_1  S_1  
     e( 16 - 16) =      4.12021  eV     1   --> B_1  D_3  S_3  
     e( 17 - 17) =      4.28215  eV     1   --> A_2  D_2  S_2  

 **************************************************************************

 **************************************************************************

                    xk=(   0.00000,   0.11547,   0.00000  )

     Band symmetry, C_2v (mm2)  point group:

     e(  1 -  1) =    -53.91759  eV     1   --> A_1  D_1  S_1  
     e(  2 -  2) =    -29.98735  eV     1   --> B_2  D_4  S_4  
     e(  3 -  3) =    -29.91633  eV     1   --> A_1  D_1  S_1  
     e(  4 -  4) =    -29.89837  eV     1   --> B_1  D_3  S_3  
     e(  5 -  5) =    -12.27876  eV     1   --> A_1  D_1  S_1  
     e(  6 -  6) =    -11.37775  eV     1   --> B_2  D_4  S_4  
     e(  7 -  7) =     -3.51691  eV     1   --> A_1  D_1  S_1  
     e(  8 -  8) =     -1.04730  eV     1   --> A_1  D_1  S_1  
     e(  9 -  9) =     -0.59985  eV     1   --> B_2  D_4  S_4  
     e( 10 - 10) =     -0.57970  eV     1   --> B_1  D_3  S_3  
     e( 11 - 11) =      0.06892  eV     1   --> A_2  D_2  S_2  
     e( 12 - 12) =      0.40650  eV     1   --> B_2  D_4  S_4  
     e( 13 - 13) =      1.64484  eV     1   --> A_1  D_1  S_1  
     e( 14 - 14) =      3.86057  eV     1   --> B_2  D_4  S_4  
     e( 15 - 15) =      3.89266  eV     1   --> A_1  D_1  S_1  
     e( 16 - 16) =      4.11391  eV     1   --> B_1  D_3  S_3  
     e( 17 - 17) =      4.29222  eV     1   --> A_2  D_2  S_2  

 **************************************************************************

 **************************************************************************

                    xk=(   0.00000,   0.11836,   0.00000  )

     Band symmetry, C_2v (mm2)  point group:

     e(  1 -  1) =    -53.91750  eV     1   --> A_1  D_1  S_1  
     e(  2 -  2) =    -29.98711  eV     1   --> B_2  D_4  S_4  
     e(  3 -  3) =    -29.91746  eV     1   --> A_1  D_1  S_1  
     e(  4 -  4) =    -29.89862  eV     1   --> B_1  D_3  S_3  
     e(  5 -  5) =    -12.27336  eV     1   --> A_1  D_1  S_1  
     e(  6 -  6) =    -11.37529  eV     1   --> B_2  D_4  S_4  
     e(  7 -  7) =     -3.50978  eV     1   --> A_1  D_1  S_1  
     e(  8 -  8) =     -1.06374  eV     1   --> A_1  D_1  S_1  
     e(  9 -  9) =     -0.61477  eV     1   --> B_2  D_4  S_4  
     e( 10 - 10) =     -0.57429  eV     1   --> B_1  D_3  S_3  
     e( 11 - 11) =      0.05947  eV     1   --> A_2  D_2  S_2  
     e( 12 - 12) =      0.40769  eV     1   --> B_2  D_4  S_4  
     e( 13 - 13) =      1.63954  eV     1   --> A_1  D_1  S_1  
     e( 14 - 14) =      3.85483  eV     1   --> B_2  D_4  S_4  
     e( 15 - 15) =      3.88037  eV     1   --> A_1  D_1  S_1  
     e( 16 - 16) =      4.10751  eV     1   --> B_1  D_3  S_3  
     e( 17 - 17) =      4.30245  eV     1   --> A_2  D_2  S_2  

 **************************************************************************

 **************************************************************************

                    xk=(   0.00000,   0.12124,   0.00000  )

     Band symmetry, C_2v (mm2)  point group:

     e(  1 -  1) =    -53.91741  eV     1   --> A_1  D_1  S_1  
     e(  2 -  2) =    -29.98686  eV     1   --> B_2  D_4  S_4  
     e(  3 -  3) =    -29.91862  eV     1   --> A_1  D_1  S_1  
     e(  4 -  4) =    -29.89889  eV     1   --> B_1  D_3  S_3  
     e(  5 -  5) =    -12.26783  eV     1   --> A_1  D_1  S_1  
     e(  6 -  6) =    -11.37278  eV     1   --> B_2  D_4  S_4  
     e(  7 -  7) =     -3.50250  eV     1   --> A_1  D_1  S_1  
     e(  8 -  8) =     -1.08045  eV     1   --> A_1  D_1  S_1  
     e(  9 -  9) =     -0.62982  eV     1   --> B_2  D_4  S_4  
     e( 10 - 10) =     -0.56877  eV     1   --> B_1  D_3  S_3  
     e( 11 - 11) =      0.04988  eV     1   --> A_2  D_2  S_2  
     e( 12 - 12) =      0.40862  eV     1   --> B_2  D_4  S_4  
     e( 13 - 13) =      1.63406  eV     1   --> A_1  D_1  S_1  
     e( 14 - 14) =      3.84930  eV     1   --> B_2  D_4  S_4  
     e( 15 - 15) =      3.86819  eV     1   --> A_1  D_1  S_1  
     e( 16 - 16) =      4.10102  eV     1   --> B_1  D_3  S_3  
     e( 17 - 17) =      4.31283  eV     1   --> A_2  D_2  S_2  

 **************************************************************************

 **************************************************************************

                    xk=(   0.00000,   0.12413,   0.00000  )

     Band symmetry, C_2v (mm2)  point group:

     e(  1 -  1) =    -53.91731  eV     1   --> A_1  D_1  S_1  
     e(  2 -  2) =    -29.98661  eV     1   --> B_2  D_4  S_4  
     e(  3 -  3) =    -29.91980  eV     1   --> A_1  D_1  S_1  
     e(  4 -  4) =    -29.89915  eV     1   --> B_1  D_3  S_3  
     e(  5 -  5) =    -12.26218  eV     1   --> A_1  D_1  S_1  
     e(  6 -  6) =    -11.37021  eV     1   --> B_2  D_4  S_4  
     e(  7 -  7) =     -3.49508  eV     1   --> A_1  D_1  S_1  
     e(  8 -  8) =     -1.09740  eV     1   --> A_1  D_1  S_1  
     e(  9 -  9) =     -0.64500  eV     1   --> B_2  D_4  S_4  
     e( 10 - 10) =     -0.56314  eV     1   --> B_1  D_3  S_3  
     e( 11 - 11) =      0.04015  eV     1   --> A_2  D_2  S_2  
     e( 12 - 12) =      0.40929  eV     1   --> B_2  D_4  S_4  
     e( 13 - 13) =      1.62839  eV     1   --> A_1  D_1  S_1  
     e( 14 - 14) =      3.84401  eV     1   --> B_2  D_4  S_4  
     e( 15 - 15) =      3.85612  eV     1   --> A_1  D_1  S_1  
     e( 16 - 16) =      4.09443  eV     1   --> B_1  D_3  S_3  
     e( 17 - 17) =      4.32335  eV     1   --> A_2  D_2  S_2  

 **************************************************************************

 **************************************************************************

                    xk=(   0.00000,   0.12702,   0.00000  )

     Band symmetry, C_2v (mm2)  point group:

     e(  1 -  1) =    -53.91721  eV     1   --> A_1  D_1  S_1  
     e(  2 -  2) =    -29.98635  eV     1   --> B_2  D_4  S_4  
     e(  3 -  3) =    -29.92100  eV     1   --> A_1  D_1  S_1  
     e(  4 -  4) =    -29.89942  eV     1   --> B_1  D_3  S_3  
     e(  5 -  5) =    -12.25641  eV     1   --> A_1  D_1  S_1  
     e(  6 -  6) =    -11.36758  eV     1   --> B_2  D_4  S_4  
     e(  7 -  7) =     -3.48751  eV     1   --> A_1  D_1  S_1  
     e(  8 -  8) =     -1.11460  eV     1   --> A_1  D_1  S_1  
     e(  9 -  9) =     -0.66030  eV     1   --> B_2  D_4  S_4  
     e( 10 - 10) =     -0.55739  eV     1   --> B_1  D_3  S_3  
     e( 11 - 11) =      0.03029  eV     1   --> A_2  D_2  S_2  
     e( 12 - 12) =      0.40970  eV     1   --> B_2  D_4  S_4  
     e( 13 - 13) =      1.62252  eV     1   --> A_1  D_1  S_1  
     e( 14 - 14) =      3.83897  eV     1   --> B_2  D_4  S_4  
     e( 15 - 15) =      3.84418  eV     1   --> A_1  D_1  S_1  
     e( 16 - 16) =      4.08777  eV     1   --> B_1  D_3  S_3  
     e( 17 - 17) =      4.33401  eV     1   --> A_2  D_2  S_2  

 **************************************************************************

 **************************************************************************

                    xk=(   0.00000,   0.12990,   0.00000  )

     Band symmetry, C_2v (mm2)  point group:

     e(  1 -  1) =    -53.91711  eV     1   --> A_1  D_1  S_1  
     e(  2 -  2) =    -29.98609  eV     1   --> B_2  D_4  S_4  
     e(  3 -  3) =    -29.92222  eV     1   --> A_1  D_1  S_1  
     e(  4 -  4) =    -29.89970  eV     1   --> B_1  D_3  S_3  
     e(  5 -  5) =    -12.25053  eV     1   --> A_1  D_1  S_1  
     e(  6 -  6) =    -11.36490  eV     1   --> B_2  D_4  S_4  
     e(  7 -  7) =     -3.47980  eV     1   --> A_1  D_1  S_1  
     e(  8 -  8) =     -1.13204  eV     1   --> A_1  D_1  S_1  
     e(  9 -  9) =     -0.67571  eV     1   --> B_2  D_4  S_4  
     e( 10 - 10) =     -0.55153  eV     1   --> B_1  D_3  S_3  
     e( 11 - 11) =      0.02029  eV     1   --> A_2  D_2  S_2  
     e( 12 - 12) =      0.40983  eV     1   --> B_2  D_4  S_4  
     e( 13 - 13) =      1.61645  eV     1   --> A_1  D_1  S_1  
     e( 14 - 14) =      3.83239  eV     1   --> A_1  D_1  S_1  
     e( 15 - 15) =      3.83419  eV     1   --> B_2  D_4  S_4  
     e( 16 - 16) =      4.08102  eV     1   --> B_1  D_3  S_3  
     e( 17 - 17) =      4.34480  eV     1   --> A_2  D_2  S_2  

 **************************************************************************

 **************************************************************************

                    xk=(   0.00000,   0.13279,   0.00000  )

     Band symmetry, C_2v (mm2)  point group:

     e(  1 -  1) =    -53.91701  eV     1   --> A_1  D_1  S_1  
     e(  2 -  2) =    -29.98582  eV     1   --> B_2  D_4  S_4  
     e(  3 -  3) =    -29.92347  eV     1   --> A_1  D_1  S_1  
     e(  4 -  4) =    -29.89998  eV     1   --> B_1  D_3  S_3  
     e(  5 -  5) =    -12.24452  eV     1   --> A_1  D_1  S_1  
     e(  6 -  6) =    -11.36217  eV     1   --> B_2  D_4  S_4  
     e(  7 -  7) =     -3.47195  eV     1   --> A_1  D_1  S_1  
     e(  8 -  8) =     -1.14970  eV     1   --> A_1  D_1  S_1  
     e(  9 -  9) =     -0.69124  eV     1   --> B_2  D_4  S_4  
     e( 10 - 10) =     -0.54556  eV     1   --> B_1  D_3  S_3  
     e( 11 - 11) =      0.01017  eV     1   --> A_2  D_2  S_2  
     e( 12 - 12) =      0.40970  eV     1   --> B_2  D_4  S_4  
     e( 13 - 13) =      1.61019  eV     1   --> A_1  D_1  S_1  
     e( 14 - 14) =      3.82075  eV     1   --> A_1  D_1  S_1  
     e( 15 - 15) =      3.82968  eV     1   --> B_2  D_4  S_4  
     e( 16 - 16) =      4.07420  eV     1   --> B_1  D_3  S_3  
     e( 17 - 17) =      4.35572  eV     1   --> A_2  D_2  S_2  

 **************************************************************************

 **************************************************************************

                    xk=(   0.00000,   0.13568,   0.00000  )

     Band symmetry, C_2v (mm2)  point group:

     e(  1 -  1) =    -53.91690  eV     1   --> A_1  D_1  S_1  
     e(  2 -  2) =    -29.98555  eV     1   --> B_2  D_4  S_4  
     e(  3 -  3) =    -29.92474  eV     1   --> A_1  D_1  S_1  
     e(  4 -  4) =    -29.90027  eV     1   --> B_1  D_3  S_3  
     e(  5 -  5) =    -12.23840  eV     1   --> A_1  D_1  S_1  
     e(  6 -  6) =    -11.35938  eV     1   --> B_2  D_4  S_4  
     e(  7 -  7) =     -3.46397  eV     1   --> A_1  D_1  S_1  
     e(  8 -  8) =     -1.16758  eV     1   --> A_1  D_1  S_1  
     e(  9 -  9) =     -0.70689  eV     1   --> B_2  D_4  S_4  
     e( 10 - 10) =     -0.53948  eV     1   --> B_1  D_3  S_3  
     e( 11 - 11) =     -0.00008  eV     1   --> A_2  D_2  S_2  
     e( 12 - 12) =      0.40930  eV     1   --> B_2  D_4  S_4  
     e( 13 - 13) =      1.60373  eV     1   --> A_1  D_1  S_1  
     e( 14 - 14) =      3.80929  eV     1   --> A_1  D_1  S_1  
     e( 15 - 15) =      3.82546  eV     1   --> B_2  D_4  S_4  
     e( 16 - 16) =      4.06731  eV     1   --> B_1  D_3  S_3  
     e( 17 - 17) =      4.36675  eV     1   --> A_2  D_2  S_2  

 **************************************************************************

 **************************************************************************

                    xk=(   0.00000,   0.13856,   0.00000  )

     Band symmetry, C_2v (mm2)  point group:

     e(  1 -  1) =    -53.91680  eV     1   --> A_1  D_1  S_1  
     e(  2 -  2) =    -29.98527  eV     1   --> B_2  D_4  S_4  
     e(  3 -  3) =    -29.92603  eV     1   --> A_1  D_1  S_1  
     e(  4 -  4) =    -29.90056  eV     1   --> B_1  D_3  S_3  
     e(  5 -  5) =    -12.23216  eV     1   --> A_1  D_1  S_1  
     e(  6 -  6) =    -11.35654  eV     1   --> B_2  D_4  S_4  
     e(  7 -  7) =     -3.45586  eV     1   --> A_1  D_1  S_1  
     e(  8 -  8) =     -1.18566  eV     1   --> A_1  D_1  S_1  
     e(  9 -  9) =     -0.72265  eV     1   --> B_2  D_4  S_4  
     e( 10 - 10) =     -0.53330  eV     1   --> B_1  D_3  S_3  
     e( 11 - 11) =     -0.01044  eV     1   --> A_2  D_2  S_2  
     e( 12 - 12) =      0.40862  eV     1   --> B_2  D_4  S_4  
     e( 13 - 13) =      1.59707  eV     1   --> A_1  D_1  S_1  
     e( 14 - 14) =      3.79799  eV     1   --> A_1  D_1  S_1  
     e( 15 - 15) =      3.82153  eV     1   --> B_2  D_4  S_4  
     e( 16 - 16) =      4.06035  eV     1   --> B_1  D_3  S_3  
     e( 17 - 17) =      4.37790  eV     1   --> A_2  D_2  S_2  

 **************************************************************************

 **************************************************************************

                    xk=(   0.00000,   0.14145,   0.00000  )

     Band symmetry, C_2v (mm2)  point group:

     e(  1 -  1) =    -53.91669  eV     1   --> A_1  D_1  S_1  
     e(  2 -  2) =    -29.98499  eV     1   --> B_2  D_4  S_4  
     e(  3 -  3) =    -29.92734  eV     1   --> A_1  D_1  S_1  
     e(  4 -  4) =    -29.90086  eV     1   --> B_1  D_3  S_3  
     e(  5 -  5) =    -12.22581  eV     1   --> A_1  D_1  S_1  
     e(  6 -  6) =    -11.35365  eV     1   --> B_2  D_4  S_4  
     e(  7 -  7) =     -3.44762  eV     1   --> A_1  D_1  S_1  
     e(  8 -  8) =     -1.20395  eV     1   --> A_1  D_1  S_1  
     e(  9 -  9) =     -0.73852  eV     1   --> B_2  D_4  S_4  
     e( 10 - 10) =     -0.52700  eV     1   --> B_1  D_3  S_3  
     e( 11 - 11) =     -0.02091  eV     1   --> A_2  D_2  S_2  
     e( 12 - 12) =      0.40768  eV     1   --> B_2  D_4  S_4  
     e( 13 - 13) =      1.59020  eV     1   --> A_1  D_1  S_1  
     e( 14 - 14) =      3.78689  eV     1   --> A_1  D_1  S_1  
     e( 15 - 15) =      3.81791  eV     1   --> B_2  D_4  S_4  
     e( 16 - 16) =      4.05333  eV     1   --> B_1  D_3  S_3  
     e( 17 - 17) =      4.38916  eV     1   --> A_2  D_2  S_2  

 **************************************************************************

 **************************************************************************

                    xk=(   0.00000,   0.14434,   0.00000  )

     Band symmetry, C_2v (mm2)  point group:

     e(  1 -  1) =    -53.91658  eV     1   --> A_1  D_1  S_1  
     e(  2 -  2) =    -29.98470  eV     1   --> B_2  D_4  S_4  
     e(  3 -  3) =    -29.92867  eV     1   --> A_1  D_1  S_1  
     e(  4 -  4) =    -29.90116  eV     1   --> B_1  D_3  S_3  
     e(  5 -  5) =    -12.21934  eV     1   --> A_1  D_1  S_1  
     e(  6 -  6) =    -11.35071  eV     1   --> B_2  D_4  S_4  
     e(  7 -  7) =     -3.43925  eV     1   --> A_1  D_1  S_1  
     e(  8 -  8) =     -1.22244  eV     1   --> A_1  D_1  S_1  
     e(  9 -  9) =     -0.75450  eV     1   --> B_2  D_4  S_4  
     e( 10 - 10) =     -0.52061  eV     1   --> B_1  D_3  S_3  
     e( 11 - 11) =     -0.03149  eV     1   --> A_2  D_2  S_2  
     e( 12 - 12) =      0.40646  eV     1   --> B_2  D_4  S_4  
     e( 13 - 13) =      1.58313  eV     1   --> A_1  D_1  S_1  
     e( 14 - 14) =      3.77599  eV     1   --> A_1  D_1  S_1  
     e( 15 - 15) =      3.81460  eV     1   --> B_2  D_4  S_4  
     e( 16 - 16) =      4.04624  eV     1   --> B_1  D_3  S_3  
     e( 17 - 17) =      4.40052  eV     1   --> A_2  D_2  S_2  

 **************************************************************************

 **************************************************************************

                    xk=(   0.00000,   0.14722,   0.00000  )

     Band symmetry, C_2v (mm2)  point group:

     e(  1 -  1) =    -53.91647  eV     1   --> A_1  D_1  S_1  
     e(  2 -  2) =    -29.98441  eV     1   --> B_2  D_4  S_4  
     e(  3 -  3) =    -29.93002  eV     1   --> A_1  D_1  S_1  
     e(  4 -  4) =    -29.90147  eV     1   --> B_1  D_3  S_3  
     e(  5 -  5) =    -12.21276  eV     1   --> A_1  D_1  S_1  
     e(  6 -  6) =    -11.34771  eV     1   --> B_2  D_4  S_4  
     e(  7 -  7) =     -3.43076  eV     1   --> A_1  D_1  S_1  
     e(  8 -  8) =     -1.24110  eV     1   --> A_1  D_1  S_1  
     e(  9 -  9) =     -0.77058  eV     1   --> B_2  D_4  S_4  
     e( 10 - 10) =     -0.51411  eV     1   --> B_1  D_3  S_3  
     e( 11 - 11) =     -0.04217  eV     1   --> A_2  D_2  S_2  
     e( 12 - 12) =      0.40497  eV     1   --> B_2  D_4  S_4  
     e( 13 - 13) =      1.57586  eV     1   --> A_1  D_1  S_1  
     e( 14 - 14) =      3.76530  eV     1   --> A_1  D_1  S_1  
     e( 15 - 15) =      3.81161  eV     1   --> B_2  D_4  S_4  
     e( 16 - 16) =      4.03910  eV     1   --> B_1  D_3  S_3  
     e( 17 - 17) =      4.41197  eV     1   --> A_2  D_2  S_2  

 **************************************************************************

 **************************************************************************

                    xk=(   0.00000,   0.15011,   0.00000  )

     Band symmetry, C_2v (mm2)  point group:

     e(  1 -  1) =    -53.91636  eV     1   --> A_1  D_1  S_1  
     e(  2 -  2) =    -29.98412  eV     1   --> B_2  D_4  S_4  
     e(  3 -  3) =    -29.93140  eV     1   --> A_1  D_1  S_1  
     e(  4 -  4) =    -29.90178  eV     1   --> B_1  D_3  S_3  
     e(  5 -  5) =    -12.20607  eV     1   --> A_1  D_1  S_1  
     e(  6 -  6) =    -11.34467  eV     1   --> B_2  D_4  S_4  
     e(  7 -  7) =     -3.42214  eV     1   --> A_1  D_1  S_1  
     e(  8 -  8) =     -1.25995  eV     1   --> A_1  D_1  S_1  
     e(  9 -  9) =     -0.78677  eV     1   --> B_2  D_4  S_4  
     e( 10 - 10) =     -0.50751  eV     1   --> B_1  D_3  S_3  
     e( 11 - 11) =     -0.05295  eV     1   --> A_2  D_2  S_2  
     e( 12 - 12) =      0.40322  eV     1   --> B_2  D_4  S_4  
     e( 13 - 13) =      1.56838  eV     1   --> A_1  D_1  S_1  
     e( 14 - 14) =      3.75482  eV     1   --> A_1  D_1  S_1  
     e( 15 - 15) =      3.80896  eV     1   --> B_2  D_4  S_4  
     e( 16 - 16) =      4.03192  eV     1   --> B_1  D_3  S_3  
     e( 17 - 17) =      4.42352  eV     1   --> A_2  D_2  S_2  

 **************************************************************************

 **************************************************************************

                    xk=(   0.00000,   0.15300,   0.00000  )

     Band symmetry, C_2v (mm2)  point group:

     e(  1 -  1) =    -53.91624  eV     1   --> A_1  D_1  S_1  
     e(  2 -  2) =    -29.98382  eV     1   --> B_2  D_4  S_4  
     e(  3 -  3) =    -29.93279  eV     1   --> A_1  D_1  S_1  
     e(  4 -  4) =    -29.90210  eV     1   --> B_1  D_3  S_3  
     e(  5 -  5) =    -12.19926  eV     1   --> A_1  D_1  S_1  
     e(  6 -  6) =    -11.34157  eV     1   --> B_2  D_4  S_4  
     e(  7 -  7) =     -3.41341  eV     1   --> A_1  D_1  S_1  
     e(  8 -  8) =     -1.27896  eV     1   --> A_1  D_1  S_1  
     e(  9 -  9) =     -0.80306  eV     1   --> B_2  D_4  S_4  
     e( 10 - 10) =     -0.50081  eV     1   --> B_1  D_3  S_3  
     e( 11 - 11) =     -0.06382  eV     1   --> A_2  D_2  S_2  
     e( 12 - 12) =      0.40120  eV     1   --> B_2  D_4  S_4  
     e( 13 - 13) =      1.56070  eV     1   --> A_1  D_1  S_1  
     e( 14 - 14) =      3.74457  eV     1   --> A_1  D_1  S_1  
     e( 15 - 15) =      3.80664  eV     1   --> B_2  D_4  S_4  
     e( 16 - 16) =      4.02468  eV     1   --> B_1  D_3  S_3  
     e( 17 - 17) =      4.43515  eV     1   --> A_2  D_2  S_2  

 **************************************************************************

 **************************************************************************

                    xk=(   0.00000,   0.15588,   0.00000  )

     Band symmetry, C_2v (mm2)  point group:

     e(  1 -  1) =    -53.91613  eV     1   --> A_1  D_1  S_1  
     e(  2 -  2) =    -29.98352  eV     1   --> B_2  D_4  S_4  
     e(  3 -  3) =    -29.93421  eV     1   --> A_1  D_1  S_1  
     e(  4 -  4) =    -29.90242  eV     1   --> B_1  D_3  S_3  
     e(  5 -  5) =    -12.19235  eV     1   --> A_1  D_1  S_1  
     e(  6 -  6) =    -11.33843  eV     1   --> B_2  D_4  S_4  
     e(  7 -  7) =     -3.40457  eV     1   --> A_1  D_1  S_1  
     e(  8 -  8) =     -1.29813  eV     1   --> A_1  D_1  S_1  
     e(  9 -  9) =     -0.81945  eV     1   --> B_2  D_4  S_4  
     e( 10 - 10) =     -0.49401  eV     1   --> B_1  D_3  S_3  
     e( 11 - 11) =     -0.07479  eV     1   --> A_2  D_2  S_2  
     e( 12 - 12) =      0.39892  eV     1   --> B_2  D_4  S_4  
     e( 13 - 13) =      1.55282  eV     1   --> A_1  D_1  S_1  
     e( 14 - 14) =      3.73456  eV     1   --> A_1  D_1  S_1  
     e( 15 - 15) =      3.80467  eV     1   --> B_2  D_4  S_4  
     e( 16 - 16) =      4.01740  eV     1   --> B_1  D_3  S_3  
     e( 17 - 17) =      4.44687  eV     1   --> A_2  D_2  S_2  

 **************************************************************************

 **************************************************************************

                    xk=(   0.00000,   0.15877,   0.00000  )

     Band symmetry, C_2v (mm2)  point group:

     e(  1 -  1) =    -53.91601  eV     1   --> A_1  D_1  S_1  
     e(  2 -  2) =    -29.98321  eV     1   --> B_2  D_4  S_4  
     e(  3 -  3) =    -29.93564  eV     1   --> A_1  D_1  S_1  
     e(  4 -  4) =    -29.90274  eV     1   --> B_1  D_3  S_3  
     e(  5 -  5) =    -12.18533  eV     1   --> A_1  D_1  S_1  
     e(  6 -  6) =    -11.33523  eV     1   --> B_2  D_4  S_4  
     e(  7 -  7) =     -3.39562  eV     1   --> A_1  D_1  S_1  
     e(  8 -  8) =     -1.31745  eV     1   --> A_1  D_1  S_1  
     e(  9 -  9) =     -0.83594  eV     1   --> B_2  D_4  S_4  
     e( 10 - 10) =     -0.48712  eV     1   --> B_1  D_3  S_3  
     e( 11 - 11) =     -0.08583  eV     1   --> A_2  D_2  S_2  
     e( 12 - 12) =      0.39637  eV     1   --> B_2  D_4  S_4  
     e( 13 - 13) =      1.54473  eV     1   --> A_1  D_1  S_1  
     e( 14 - 14) =      3.72479  eV     1   --> A_1  D_1  S_1  
     e( 15 - 15) =      3.80305  eV     1   --> B_2  D_4  S_4  
     e( 16 - 16) =      4.01008  eV     1   --> B_1  D_3  S_3  
     e( 17 - 17) =      4.45865  eV     1   --> A_2  D_2  S_2  

 **************************************************************************

 **************************************************************************

                    xk=(   0.00000,   0.16166,   0.00000  )

     Band symmetry, C_2v (mm2)  point group:

     e(  1 -  1) =    -53.91589  eV     1   --> A_1  D_1  S_1  
     e(  2 -  2) =    -29.98290  eV     1   --> B_2  D_4  S_4  
     e(  3 -  3) =    -29.93709  eV     1   --> A_1  D_1  S_1  
     e(  4 -  4) =    -29.90307  eV     1   --> B_1  D_3  S_3  
     e(  5 -  5) =    -12.17820  eV     1   --> A_1  D_1  S_1  
     e(  6 -  6) =    -11.33199  eV     1   --> B_2  D_4  S_4  
     e(  7 -  7) =     -3.38656  eV     1   --> A_1  D_1  S_1  
     e(  8 -  8) =     -1.33692  eV     1   --> A_1  D_1  S_1  
     e(  9 -  9) =     -0.85254  eV     1   --> B_2  D_4  S_4  
     e( 10 - 10) =     -0.48013  eV     1   --> B_1  D_3  S_3  
     e( 11 - 11) =     -0.09696  eV     1   --> A_2  D_2  S_2  
[...]
     e( 16 - 16) =      4.17345  eV     1   --> A'             
     e( 17 - 17) =      4.22933  eV     1   --> A'             

 **************************************************************************

 **************************************************************************

                    xk=(   0.02167,   0.03753,   0.00000  )

     Band symmetry, C_s (m)     point group:

     e(  1 -  1) =    -53.91921  eV     1   --> A'             
     e(  2 -  2) =    -29.99158  eV     1   --> A''            
     e(  3 -  3) =    -29.89649  eV     1   --> A'             
     e(  4 -  4) =    -29.89389  eV     1   --> A'             
     e(  5 -  5) =    -12.37222  eV     1   --> A'             
     e(  6 -  6) =    -11.42029  eV     1   --> A''            
     e(  7 -  7) =     -3.64197  eV     1   --> A'             
     e(  8 -  8) =     -0.74437  eV     1   --> A'             
     e(  9 -  9) =     -0.67405  eV     1   --> A'             
     e( 10 - 10) =     -0.28617  eV     1   --> A''            
     e( 11 - 11) =      0.24276  eV     1   --> A''            
     e( 12 - 12) =      0.31676  eV     1   --> A''            
     e( 13 - 13) =      1.72470  eV     1   --> A'             
     e( 14 - 14) =      4.02456  eV     1   --> A''            
     e( 15 - 15) =      4.10203  eV     1   --> A''            
     e( 16 - 16) =      4.18383  eV     1   --> A'             
     e( 17 - 17) =      4.23276  eV     1   --> A'             

 **************************************************************************

 **************************************************************************

                    xk=(   0.02000,   0.03464,   0.00000  )

     Band symmetry, C_s (m)     point group:

     e(  1 -  1) =    -53.91925  eV     1   --> A'             
     e(  2 -  2) =    -29.99169  eV     1   --> A''            
     e(  3 -  3) =    -29.89599  eV     1   --> A'             
     e(  4 -  4) =    -29.89377  eV     1   --> A'             
     e(  5 -  5) =    -12.37453  eV     1   --> A'             
     e(  6 -  6) =    -11.42134  eV     1   --> A''            
     e(  7 -  7) =     -3.64509  eV     1   --> A'             
     e(  8 -  8) =     -0.73642  eV     1   --> A'             
     e(  9 -  9) =     -0.67638  eV     1   --> A'             
     e( 10 - 10) =     -0.27596  eV     1   --> A''            
     e( 11 - 11) =      0.24759  eV     1   --> A''            
     e( 12 - 12) =      0.31142  eV     1   --> A''            
     e( 13 - 13) =      1.72637  eV     1   --> A'             
     e( 14 - 14) =      4.03056  eV     1   --> A''            
     e( 15 - 15) =      4.09691  eV     1   --> A''            
     e( 16 - 16) =      4.19364  eV     1   --> A'             
     e( 17 - 17) =      4.23594  eV     1   --> A'             

 **************************************************************************

 **************************************************************************

                    xk=(   0.01833,   0.03175,   0.00000  )

     Band symmetry, C_s (m)     point group:

     e(  1 -  1) =    -53.91929  eV     1   --> A'             
     e(  2 -  2) =    -29.99179  eV     1   --> A''            
     e(  3 -  3) =    -29.89554  eV     1   --> A'             
     e(  4 -  4) =    -29.89367  eV     1   --> A'             
     e(  5 -  5) =    -12.37665  eV     1   --> A'             
     e(  6 -  6) =    -11.42231  eV     1   --> A''            
     e(  7 -  7) =     -3.64797  eV     1   --> A'             
     e(  8 -  8) =     -0.72907  eV     1   --> A'             
     e(  9 -  9) =     -0.67853  eV     1   --> A'             
     e( 10 - 10) =     -0.26632  eV     1   --> A''            
     e( 11 - 11) =      0.25202  eV     1   --> A''            
     e( 12 - 12) =      0.30630  eV     1   --> A''            
     e( 13 - 13) =      1.72790  eV     1   --> A'             
     e( 14 - 14) =      4.03617  eV     1   --> A''            
     e( 15 - 15) =      4.09219  eV     1   --> A''            
     e( 16 - 16) =      4.20285  eV     1   --> A'             
     e( 17 - 17) =      4.23887  eV     1   --> A'             

 **************************************************************************

 **************************************************************************

                    xk=(   0.01667,   0.02887,   0.00000  )

     Band symmetry, C_s (m)     point group:

     e(  1 -  1) =    -53.91933  eV     1   --> A'             
     e(  2 -  2) =    -29.99188  eV     1   --> A''            
     e(  3 -  3) =    -29.89512  eV     1   --> A'             
     e(  4 -  4) =    -29.89358  eV     1   --> A'             
     e(  5 -  5) =    -12.37859  eV     1   --> A'             
     e(  6 -  6) =    -11.42319  eV     1   --> A''            
     e(  7 -  7) =     -3.65060  eV     1   --> A'             
     e(  8 -  8) =     -0.72234  eV     1   --> A'             
     e(  9 -  9) =     -0.68050  eV     1   --> A'             
     e( 10 - 10) =     -0.25732  eV     1   --> A''            
     e( 11 - 11) =      0.25606  eV     1   --> A''            
     e( 12 - 12) =      0.30143  eV     1   --> A''            
     e( 13 - 13) =      1.72928  eV     1   --> A'             
     e( 14 - 14) =      4.04137  eV     1   --> A''            
     e( 15 - 15) =      4.08786  eV     1   --> A''            
     e( 16 - 16) =      4.21141  eV     1   --> A'             
     e( 17 - 17) =      4.24155  eV     1   --> A'             

 **************************************************************************

 **************************************************************************

                    xk=(   0.01500,   0.02598,   0.00000  )

     Band symmetry, C_s (m)     point group:

     e(  1 -  1) =    -53.91936  eV     1   --> A'             
     e(  2 -  2) =    -29.99196  eV     1   --> A''            
     e(  3 -  3) =    -29.89474  eV     1   --> A'             
     e(  4 -  4) =    -29.89349  eV     1   --> A'             
     e(  5 -  5) =    -12.38035  eV     1   --> A'             
     e(  6 -  6) =    -11.42399  eV     1   --> A''            
     e(  7 -  7) =     -3.65298  eV     1   --> A'             
     e(  8 -  8) =     -0.71622  eV     1   --> A'             
     e(  9 -  9) =     -0.68229  eV     1   --> A'             
     e( 10 - 10) =     -0.24899  eV     1   --> A''            
     e( 11 - 11) =      0.25970  eV     1   --> A''            
     e( 12 - 12) =      0.29685  eV     1   --> A''            
     e( 13 - 13) =      1.73053  eV     1   --> A'             
     e( 14 - 14) =      4.04613  eV     1   --> A''            
     e( 15 - 15) =      4.08394  eV     1   --> A''            
     e( 16 - 16) =      4.21929  eV     1   --> A'             
     e( 17 - 17) =      4.24399  eV     1   --> A'             

 **************************************************************************

 **************************************************************************

                    xk=(   0.01333,   0.02309,   0.00000  )

     Band symmetry, C_s (m)     point group:

     e(  1 -  1) =    -53.91938  eV     1   --> A'             
     e(  2 -  2) =    -29.99203  eV     1   --> A''            
     e(  3 -  3) =    -29.89440  eV     1   --> A'             
     e(  4 -  4) =    -29.89341  eV     1   --> A'             
     e(  5 -  5) =    -12.38192  eV     1   --> A'             
     e(  6 -  6) =    -11.42471  eV     1   --> A''            
     e(  7 -  7) =     -3.65511  eV     1   --> A'             
     e(  8 -  8) =     -0.71073  eV     1   --> A'             
     e(  9 -  9) =     -0.68389  eV     1   --> A'             
     e( 10 - 10) =     -0.24138  eV     1   --> A''            
     e( 11 - 11) =      0.26296  eV     1   --> A''            
     e( 12 - 12) =      0.29260  eV     1   --> A''            
     e( 13 - 13) =      1.73163  eV     1   --> A'             
     e( 14 - 14) =      4.05045  eV     1   --> A''            
     e( 15 - 15) =      4.08043  eV     1   --> A''            
     e( 16 - 16) =      4.22645  eV     1   --> A'             
     e( 17 - 17) =      4.24617  eV     1   --> A'             

 **************************************************************************

 **************************************************************************

                    xk=(   0.01167,   0.02021,   0.00000  )

     Band symmetry, C_s (m)     point group:

     e(  1 -  1) =    -53.91941  eV     1   --> A'             
     e(  2 -  2) =    -29.99209  eV     1   --> A''            
     e(  3 -  3) =    -29.89410  eV     1   --> A'             
     e(  4 -  4) =    -29.89334  eV     1   --> A'             
     e(  5 -  5) =    -12.38331  eV     1   --> A'             
     e(  6 -  6) =    -11.42534  eV     1   --> A''            
     e(  7 -  7) =     -3.65699  eV     1   --> A'             
     e(  8 -  8) =     -0.70588  eV     1   --> A'             
     e(  9 -  9) =     -0.68530  eV     1   --> A'             
     e( 10 - 10) =     -0.23454  eV     1   --> A''            
     e( 11 - 11) =      0.26582  eV     1   --> A''            
     e( 12 - 12) =      0.28873  eV     1   --> A''            
     e( 13 - 13) =      1.73260  eV     1   --> A'             
     e( 14 - 14) =      4.05430  eV     1   --> A''            
     e( 15 - 15) =      4.07733  eV     1   --> A''            
     e( 16 - 16) =      4.23286  eV     1   --> A'             
     e( 17 - 17) =      4.24810  eV     1   --> A'             

 **************************************************************************

 **************************************************************************

                    xk=(   0.01000,   0.01732,   0.00000  )

     Band symmetry, C_s (m)     point group:

     e(  1 -  1) =    -53.91943  eV     1   --> A'             
     e(  2 -  2) =    -29.99215  eV     1   --> A''            
     e(  3 -  3) =    -29.89384  eV     1   --> A'             
     e(  4 -  4) =    -29.89329  eV     1   --> A'             
     e(  5 -  5) =    -12.38451  eV     1   --> A'             
     e(  6 -  6) =    -11.42589  eV     1   --> A''            
     e(  7 -  7) =     -3.65863  eV     1   --> A'             
     e(  8 -  8) =     -0.70166  eV     1   --> A'             
     e(  9 -  9) =     -0.68652  eV     1   --> A'             
     e( 10 - 10) =     -0.22849  eV     1   --> A''            
     e( 11 - 11) =      0.26830  eV     1   --> A''            
     e( 12 - 12) =      0.28527  eV     1   --> A''            
     e( 13 - 13) =      1.73344  eV     1   --> A'             
     e( 14 - 14) =      4.05767  eV     1   --> A''            
     e( 15 - 15) =      4.07463  eV     1   --> A''            
     e( 16 - 16) =      4.23848  eV     1   --> A'             
     e( 17 - 17) =      4.24977  eV     1   --> A'             

 **************************************************************************

 **************************************************************************

                    xk=(   0.00833,   0.01443,   0.00000  )

     Band symmetry, C_s (m)     point group:

     e(  1 -  1) =    -53.91945  eV     1   --> A'             
     e(  2 -  2) =    -29.99220  eV     1   --> A''            
     e(  3 -  3) =    -29.89362  eV     1   --> A'             
     e(  4 -  4) =    -29.89324  eV     1   --> A'             
     e(  5 -  5) =    -12.38553  eV     1   --> A'             
     e(  6 -  6) =    -11.42635  eV     1   --> A''            
     e(  7 -  7) =     -3.66001  eV     1   --> A'             
     e(  8 -  8) =     -0.69808  eV     1   --> A'             
     e(  9 -  9) =     -0.68756  eV     1   --> A'             
     e( 10 - 10) =     -0.22330  eV     1   --> A''            
     e( 11 - 11) =      0.27039  eV     1   --> A''            
     e( 12 - 12) =      0.28226  eV     1   --> A''            
     e( 13 - 13) =      1.73415  eV     1   --> A'             
     e( 14 - 14) =      4.06054  eV     1   --> A''            
     e( 15 - 15) =      4.07235  eV     1   --> A''            
     e( 16 - 16) =      4.24329  eV     1   --> A'             
     e( 17 - 17) =      4.25118  eV     1   --> A'             

 **************************************************************************

 **************************************************************************

                    xk=(   0.00667,   0.01155,   0.00000  )

     Band symmetry, C_s (m)     point group:

     e(  1 -  1) =    -53.91946  eV     1   --> A'             
     e(  2 -  2) =    -29.99223  eV     1   --> A''            
     e(  3 -  3) =    -29.89344  eV     1   --> A'             
     e(  4 -  4) =    -29.89320  eV     1   --> A'             
     e(  5 -  5) =    -12.38637  eV     1   --> A'             
     e(  6 -  6) =    -11.42673  eV     1   --> A''            
     e(  7 -  7) =     -3.66114  eV     1   --> A'             
     e(  8 -  8) =     -0.69515  eV     1   --> A'             
     e(  9 -  9) =     -0.68841  eV     1   --> A'             
     e( 10 - 10) =     -0.21899  eV     1   --> A''            
     e( 11 - 11) =      0.27210  eV     1   --> A''            
     e( 12 - 12) =      0.27974  eV     1   --> A''            
     e( 13 - 13) =      1.73472  eV     1   --> A'             
     e( 14 - 14) =      4.06291  eV     1   --> A''            
     e( 15 - 15) =      4.07048  eV     1   --> A''            
     e( 16 - 16) =      4.24726  eV     1   --> A'             
     e( 17 - 17) =      4.25234  eV     1   --> A'             

 **************************************************************************

 **************************************************************************

                    xk=(   0.00500,   0.00866,   0.00000  )

     Band symmetry, C_s (m)     point group:

     e(  1 -  1) =    -53.91947  eV     1   --> A'             
     e(  2 -  2) =    -29.99226  eV     1   --> A''            
     e(  3 -  3) =    -29.89330  eV     1   --> A'             
     e(  4 -  4) =    -29.89316  eV     1   --> A'             
     e(  5 -  5) =    -12.38701  eV     1   --> A'             
     e(  6 -  6) =    -11.42703  eV     1   --> A''            
     e(  7 -  7) =     -3.66202  eV     1   --> A'             
     e(  8 -  8) =     -0.69287  eV     1   --> A'             
     e(  9 -  9) =     -0.68907  eV     1   --> A'             
     e( 10 - 10) =     -0.21560  eV     1   --> A''            
     e( 11 - 11) =      0.27343  eV     1   --> A''            
     e( 12 - 12) =      0.27775  eV     1   --> A''            
     e( 13 - 13) =      1.73517  eV     1   --> A'             
     e( 14 - 14) =      4.06476  eV     1   --> A''            
     e( 15 - 15) =      4.06903  eV     1   --> A''            
     e( 16 - 16) =      4.25038  eV     1   --> A'             
     e( 17 - 17) =      4.25325  eV     1   --> A'             

 **************************************************************************

 **************************************************************************

                    xk=(   0.00333,   0.00577,   0.00000  )

     Band symmetry, C_s (m)     point group:

     e(  1 -  1) =    -53.91948  eV     1   --> A'             
     e(  2 -  2) =    -29.99228  eV     1   --> A''            
     e(  3 -  4) =    -29.89320  eV     2   -->   2 A'             
     e(  5 -  5) =    -12.38748  eV     1   --> A'             
     e(  6 -  6) =    -11.42724  eV     1   --> A''            
     e(  7 -  7) =     -3.66265  eV     1   --> A'             
     e(  8 -  8) =     -0.69123  eV     1   --> A'             
     e(  9 -  9) =     -0.68955  eV     1   --> A'             
     e( 10 - 10) =     -0.21316  eV     1   --> A''            
     e( 11 - 11) =      0.27438  eV     1   --> A''            
     e( 12 - 12) =      0.27631  eV     1   --> A''            
     e( 13 - 13) =      1.73549  eV     1   --> A'             
     e( 14 - 14) =      4.06609  eV     1   --> A''            
     e( 15 - 15) =      4.06799  eV     1   --> A''            
     e( 16 - 16) =      4.25261  eV     1   --> A'             
     e( 17 - 17) =      4.25389  eV     1   --> A'             

 **************************************************************************

 **************************************************************************

                    xk=(   0.00167,   0.00289,   0.00000  )

     Band symmetry, C_s (m)     point group:

     e(  1 -  1) =    -53.91949  eV     1   --> A'             
     e(  2 -  2) =    -29.99230  eV     1   --> A''            
     e(  3 -  4) =    -29.89314  eV     2   -->   2 A'             
     e(  5 -  5) =    -12.38776  eV     1   --> A'             
     e(  6 -  6) =    -11.42737  eV     1   --> A''            
     e(  7 -  7) =     -3.66303  eV     1   --> A'             
     e(  8 -  8) =     -0.69025  eV     1   --> A'             
     e(  9 -  9) =     -0.68983  eV     1   --> A'             
     e( 10 - 10) =     -0.21168  eV     1   --> A''            
     e( 11 - 11) =      0.27495  eV     1   --> A''            
     e( 12 - 12) =      0.27543  eV     1   --> A''            
     e( 13 - 13) =      1.73568  eV     1   --> A'             
     e( 14 - 14) =      4.06689  eV     1   --> A''            
     e( 15 - 15) =      4.06736  eV     1   --> A''            
     e( 16 - 16) =      4.25396  eV     1   --> A'             
     e( 17 - 17) =      4.25428  eV     1   --> A'             

 **************************************************************************

 **************************************************************************

                    xk=(   0.00000,   0.00000,   0.00000  )

     point group D_3h (-62m)
     there are  6 classes
     the character table:

       E     2C3   3C2   s_h   2S3   3s_v 
A'_1   1.00  1.00  1.00  1.00  1.00  1.00
A'_2   1.00  1.00 -1.00  1.00  1.00 -1.00
E'     2.00 -1.00  0.00  2.00 -1.00  0.00
A''1   1.00  1.00  1.00 -1.00 -1.00 -1.00
A''2   1.00  1.00 -1.00 -1.00 -1.00  1.00
E''    2.00 -1.00  0.00 -2.00  1.00  0.00

     the symmetry operations in each class and the name of the first element:

     E        1
                                                                 
     2C3      3    4
                                                                 
     3C2      2    6    5
                                                                 
     s_h      7
                                                                 
     2S3      9   10
                                                                 
     3s_v     8   11   12
                                                                 

     Band symmetry, D_3h (-62m) point group:

     e(  1 -  1) =    -53.91949  eV     1   --> A'_1           
     e(  2 -  2) =    -29.99230  eV     1   --> A''2           
     e(  3 -  4) =    -29.89312  eV     2   --> E'             
     e(  5 -  5) =    -12.38785  eV     1   --> A'_1           
     e(  6 -  6) =    -11.42741  eV     1   --> A''2           
     e(  7 -  7) =     -3.66316  eV     1   --> A'_1           
     e(  8 -  9) =     -0.68993  eV     2   --> E'             
     e( 10 - 10) =     -0.21119  eV     1   --> A''2           
     e( 11 - 12) =      0.27514  eV     2   --> E''            
     e( 13 - 13) =      1.73574  eV     1   --> A'_1           
     e( 14 - 15) =      4.06715  eV     2   --> E''            
     e( 16 - 17) =      4.25441  eV     2   --> E'             

 **************************************************************************
 
     BANDS        :   2m 7.09s CPU   2m48.70s WALL

 
   This run was terminated on:  11:28:49  19Jun2022            

=------------------------------------------------------------------------------=
   JOB DONE.
=------------------------------------------------------------------------------=
