
     Program PWSCF v.6.6 starts on 25Oct2021 at  0: 2: 3 

     This program is part of the open-source Quantum ESPRESSO suite
     for quantum simulation of materials; please cite
         "P. Giannozzi et al., J. Phys.:Condens. Matter 21 395502 (2009);
         "P. Giannozzi et al., J. Phys.:Condens. Matter 29 465901 (2017);
          URL http://www.quantum-espresso.org", 
     in publications or presentations arising from this work. More details at
     http://www.quantum-espresso.org/quote

     Parallel version (MPI), running on    64 processors

     MPI processes distributed on     1 nodes
     R & G space division:  proc/nbgrp/npool/nimage =      64
     Fft bands division:     nmany     =       1
     Waiting for input...
     Reading input from standard input

     Current dimensions of program PWSCF are:
     Max number of different atomic species (ntypx) = 10
     Max number of k-points (npk) =  40000
     Max angular momentum in pseudopotentials (lmaxx) =  3
     file Nb.pbe-mt_fhi.UPF: wavefunction(s)  4f renormalized
     file Se.pbe-mt_fhi.UPF: wavefunction(s)  4f renormalized

     Subspace diagonalization in iterative solution of the eigenvalue problem:
     a serial algorithm will be used

     Message from routine setup:
     using ibrav=0 with symmetry is DISCOURAGED, use correct ibrav instead
 
     Parallelization info
     --------------------
     sticks:   dense  smooth     PW     G-vecs:    dense   smooth      PW
     Min          18      18      5                 2052     2052     308
     Max          19      19      7                 2083     2083     320
     Sum        1189    1189    349               132117   132117   20021
 


     bravais-lattice index     =            0
     lattice parameter (alat)  =       6.5940  a.u.
     unit-cell volume          =     978.9340 (a.u.)^3
     number of atoms/cell      =            6
     number of atomic types    =            2
     number of electrons       =        34.00
     number of Kohn-Sham states=           21
     kinetic-energy cutoff     =     100.0000  Ry
     charge density cutoff     =     400.0000  Ry
     convergence threshold     =      1.0E-08
     mixing beta               =       0.7000
     number of iterations used =            8  local-TF  mixing
     Exchange-correlation= PBE
                           (   1   4   3   4   0   0   0)
     nstep                     =           50


     celldm(1)=   6.594017  celldm(2)=   0.000000  celldm(3)=   0.000000
     celldm(4)=   0.000000  celldm(5)=   0.000000  celldm(6)=   0.000000

     crystal axes: (cart. coord. in units of alat)
               a(1) = (   1.000000   0.000000   0.000000 )  
               a(2) = (  -0.500000   0.866025   0.000000 )  
               a(3) = (   0.000000   0.000000   3.942507 )  

     reciprocal axes: (cart. coord. in units 2 pi/alat)
               b(1) = (  1.000000  0.577350  0.000000 )  
               b(2) = (  0.000000  1.154701  0.000000 )  
               b(3) = (  0.000000  0.000000  0.253646 )  


     PseudoPot. # 1 for Nb read from file:
     ../PP/Nb.pbe-mt_fhi.UPF
     MD5 check sum: 94f90e10644e2d571c25e99180ac1cbe
     Pseudo is Norm-conserving, Zval =  5.0
     Generated using FHI98PP, converted with fhi2upf.x v.5.0.2
     Using radial grid of  539 points,  3 beta functions with: 
                l(1) =   0
                l(2) =   2
                l(3) =   3

     PseudoPot. # 2 for Se read from file:
     ../PP/Se.pbe-mt_fhi.UPF
     MD5 check sum: 761aa2365a2a775fd78ad90d13f3567a
     Pseudo is Norm-conserving, Zval =  6.0
     Generated using FHI98PP, converted with fhi2upf.x v.5.0.2
     Using radial grid of  533 points,  3 beta functions with: 
                l(1) =   0
                l(2) =   1
                l(3) =   3

     atomic species   valence    mass     pseudopotential
        Nb             5.00    92.90000     Nb( 1.00)
        Se             6.00    78.96000     Se( 1.00)

     24 Sym. Ops., with inversion, found (12 have fractional translation)



   Cartesian axes

     site n.     atom                  positions (alat units)
         1           Nb  tau(   1) = (   0.0000000   0.0000000   0.9856268  )
         2           Nb  tau(   2) = (   0.0000000   0.0000000   2.9568803  )
         3           Se  tau(   3) = (   0.5000000   0.2886751   2.4742859  )
         4           Se  tau(   4) = (  -0.0000000   0.5773503   0.5030324  )
         5           Se  tau(   5) = (   0.5000000   0.2886751   3.4394747  )
         6           Se  tau(   6) = (  -0.0000000   0.5773503   1.4682212  )

     number of k points=   427  Fermi-Dirac smearing, width (Ry)=  0.0100

     Number of k-points >= 100: set verbosity='high' to print them.

     Dense  grid:   132117 G-vectors     FFT dimensions: (  45,  45, 180)

     Estimated max dynamical RAM per process >      40.54 MB

     Estimated total dynamical RAM >       2.53 GB

     Initial potential from superposition of free atoms

     starting charge   33.99159, renormalised to   34.00000
     Starting wfcs are   96 randomized atomic wfcs

     total cpu time spent up to now is       17.7 secs

     Self-consistent Calculation

     iteration #  1     ecut=   100.00 Ry     beta= 0.70
     Davidson diagonalization with overlap
     ethr =  1.00E-02,  avg # of iterations =  2.0

     negative rho (up, down):  5.078E-04 0.000E+00

     total cpu time spent up to now is       26.9 secs

     total energy              =     -96.40011630 Ry
     estimated scf accuracy    <       1.73038265 Ry

     iteration #  2     ecut=   100.00 Ry     beta= 0.70
     Davidson diagonalization with overlap
     ethr =  5.09E-03,  avg # of iterations =  1.0

     negative rho (up, down):  4.712E-05 0.000E+00

     total cpu time spent up to now is       35.2 secs

     total energy              =     -96.53940323 Ry
     estimated scf accuracy    <       0.21987409 Ry

     iteration #  3     ecut=   100.00 Ry     beta= 0.70
     Davidson diagonalization with overlap
     ethr =  6.47E-04,  avg # of iterations =  5.9

     total cpu time spent up to now is       50.4 secs

     total energy              =     -96.60951287 Ry
     estimated scf accuracy    <       0.16874417 Ry

     iteration #  4     ecut=   100.00 Ry     beta= 0.70
     Davidson diagonalization with overlap
     ethr =  4.96E-04,  avg # of iterations =  3.3

     total cpu time spent up to now is       60.8 secs

     total energy              =     -96.65888394 Ry
     estimated scf accuracy    <       0.04669372 Ry

     iteration #  5     ecut=   100.00 Ry     beta= 0.70
     Davidson diagonalization with overlap
     ethr =  1.37E-04,  avg # of iterations =  3.5

     total cpu time spent up to now is       70.9 secs

     total energy              =     -96.65252243 Ry
     estimated scf accuracy    <       0.05025427 Ry

     iteration #  6     ecut=   100.00 Ry     beta= 0.70
     Davidson diagonalization with overlap
     ethr =  1.37E-04,  avg # of iterations =  1.2

     total cpu time spent up to now is       79.3 secs

     total energy              =     -96.65551697 Ry
     estimated scf accuracy    <       0.00587371 Ry

     iteration #  7     ecut=   100.00 Ry     beta= 0.70
     Davidson diagonalization with overlap
     c_bands:  1 eigenvalues not converged
     c_bands:  1 eigenvalues not converged
     c_bands:  1 eigenvalues not converged
     c_bands:  1 eigenvalues not converged
     c_bands:  1 eigenvalues not converged
     c_bands:  1 eigenvalues not converged
     ethr =  1.73E-05,  avg # of iterations =  8.7

     total cpu time spent up to now is       95.0 secs

     total energy              =     -96.65818425 Ry
     estimated scf accuracy    <       0.00099655 Ry

     iteration #  8     ecut=   100.00 Ry     beta= 0.70
     Davidson diagonalization with overlap
     c_bands:  2 eigenvalues not converged
     c_bands:  1 eigenvalues not converged
     c_bands:  1 eigenvalues not converged
     c_bands:  1 eigenvalues not converged
     c_bands:  1 eigenvalues not converged
     c_bands:  1 eigenvalues not converged
     c_bands:  1 eigenvalues not converged
     c_bands:  1 eigenvalues not converged
     c_bands:  1 eigenvalues not converged
     c_bands:  1 eigenvalues not converged
     c_bands:  1 eigenvalues not converged
     c_bands:  2 eigenvalues not converged
     c_bands:  2 eigenvalues not converged
     c_bands:  2 eigenvalues not converged
     c_bands:  1 eigenvalues not converged
     c_bands:  2 eigenvalues not converged
     c_bands:  2 eigenvalues not converged
     c_bands:  1 eigenvalues not converged
     c_bands:  1 eigenvalues not converged
     c_bands:  1 eigenvalues not converged
     c_bands:  1 eigenvalues not converged
     c_bands:  1 eigenvalues not converged
     c_bands:  2 eigenvalues not converged
     c_bands:  1 eigenvalues not converged
     c_bands:  1 eigenvalues not converged
     c_bands:  1 eigenvalues not converged
     ethr =  2.93E-06,  avg # of iterations =  8.4

     total cpu time spent up to now is      109.8 secs

     total energy              =     -96.65872759 Ry
     estimated scf accuracy    <       0.00028390 Ry

     iteration #  9     ecut=   100.00 Ry     beta= 0.70
     Davidson diagonalization with overlap
     c_bands:  2 eigenvalues not converged
     c_bands:  1 eigenvalues not converged
     c_bands:  1 eigenvalues not converged
     c_bands:  1 eigenvalues not converged
     ethr =  8.35E-07,  avg # of iterations =  4.3

     total cpu time spent up to now is      120.7 secs

     total energy              =     -96.65875089 Ry
     estimated scf accuracy    <       0.00012317 Ry

     iteration # 10     ecut=   100.00 Ry     beta= 0.70
     Davidson diagonalization with overlap
     c_bands:  1 eigenvalues not converged
     ethr =  3.62E-07,  avg # of iterations =  3.6

     total cpu time spent up to now is      130.8 secs

     total energy              =     -96.65876141 Ry
     estimated scf accuracy    <       0.00001775 Ry

     iteration # 11     ecut=   100.00 Ry     beta= 0.70
     Davidson diagonalization with overlap
     ethr =  5.22E-08,  avg # of iterations =  7.6

     total cpu time spent up to now is      149.3 secs

     total energy              =     -96.65877979 Ry
     estimated scf accuracy    <       0.00004058 Ry

     iteration # 12     ecut=   100.00 Ry     beta= 0.70
     Davidson diagonalization with overlap
     ethr =  5.22E-08,  avg # of iterations =  1.6

     total cpu time spent up to now is      157.9 secs

     total energy              =     -96.65877720 Ry
     estimated scf accuracy    <       0.00001284 Ry

     iteration # 13     ecut=   100.00 Ry     beta= 0.70
     Davidson diagonalization with overlap
     c_bands:  1 eigenvalues not converged
     c_bands:  1 eigenvalues not converged
     ethr =  3.78E-08,  avg # of iterations =  4.4

     total cpu time spent up to now is      169.4 secs

     total energy              =     -96.65878054 Ry
     estimated scf accuracy    <       0.00000039 Ry

     iteration # 14     ecut=   100.00 Ry     beta= 0.70
     Davidson diagonalization with overlap
     c_bands:  1 eigenvalues not converged
     ethr =  1.14E-09,  avg # of iterations =  8.5

     total cpu time spent up to now is      190.5 secs

     total energy              =     -96.65878091 Ry
     estimated scf accuracy    <       0.00000294 Ry

     iteration # 15     ecut=   100.00 Ry     beta= 0.70
     Davidson diagonalization with overlap
     c_bands:  1 eigenvalues not converged
     c_bands:  1 eigenvalues not converged
     ethr =  1.14E-09,  avg # of iterations =  2.9

     total cpu time spent up to now is      201.3 secs

     total energy              =     -96.65878094 Ry
     estimated scf accuracy    <       0.00000055 Ry

     iteration # 16     ecut=   100.00 Ry     beta= 0.70
     Davidson diagonalization with overlap
     ethr =  1.14E-09,  avg # of iterations =  3.2

     total cpu time spent up to now is      211.5 secs

     total energy              =     -96.65878100 Ry
     estimated scf accuracy    <       0.00000004 Ry

     iteration # 17     ecut=   100.00 Ry     beta= 0.70
     Davidson diagonalization with overlap
     ethr =  1.28E-10,  avg # of iterations =  6.9

     total cpu time spent up to now is      228.9 secs

     total energy              =     -96.65878106 Ry
     estimated scf accuracy    <       0.00000004 Ry

     iteration # 18     ecut=   100.00 Ry     beta= 0.70
     Davidson diagonalization with overlap
     ethr =  1.10E-10,  avg # of iterations =  1.2

     total cpu time spent up to now is      237.3 secs

     total energy              =     -96.65878106 Ry
     estimated scf accuracy    <       0.00000005 Ry

     iteration # 19     ecut=   100.00 Ry     beta= 0.70
     Davidson diagonalization with overlap
     ethr =  1.10E-10,  avg # of iterations =  1.3

     total cpu time spent up to now is      245.7 secs

     total energy              =     -96.65878107 Ry
     estimated scf accuracy    <       0.00000009 Ry

     iteration # 20     ecut=   100.00 Ry     beta= 0.70
     Davidson diagonalization with overlap
     ethr =  1.10E-10,  avg # of iterations =  1.0

     total cpu time spent up to now is      254.1 secs

     total energy              =     -96.65878106 Ry
     estimated scf accuracy    <       0.00000011 Ry

     iteration # 21     ecut=   100.00 Ry     beta= 0.70
     Davidson diagonalization with overlap
     ethr =  1.10E-10,  avg # of iterations =  1.0

     total cpu time spent up to now is      262.4 secs

     total energy              =     -96.65878106 Ry
     estimated scf accuracy    <       0.00000008 Ry

     iteration # 22     ecut=   100.00 Ry     beta= 0.70
     Davidson diagonalization with overlap
     ethr =  1.10E-10,  avg # of iterations =  1.0

     total cpu time spent up to now is      270.8 secs

     total energy              =     -96.65878106 Ry
     estimated scf accuracy    <       0.00000007 Ry

     iteration # 23     ecut=   100.00 Ry     beta= 0.70
     Davidson diagonalization with overlap
     ethr =  1.10E-10,  avg # of iterations =  1.0

     total cpu time spent up to now is      279.2 secs

     total energy              =     -96.65878106 Ry
     estimated scf accuracy    <       0.00000008 Ry

     iteration # 24     ecut=   100.00 Ry     beta= 0.70
     Davidson diagonalization with overlap
     ethr =  1.10E-10,  avg # of iterations =  1.0

     total cpu time spent up to now is      287.5 secs

     total energy              =     -96.65878105 Ry
     estimated scf accuracy    <       0.00000005 Ry

     iteration # 25     ecut=   100.00 Ry     beta= 0.70
     Davidson diagonalization with overlap
     ethr =  1.10E-10,  avg # of iterations =  1.4

     total cpu time spent up to now is      296.1 secs

     total energy              =     -96.65878105 Ry
     estimated scf accuracy    <       0.00000001 Ry

     iteration # 26     ecut=   100.00 Ry     beta= 0.70
     Davidson diagonalization with overlap
     c_bands:  1 eigenvalues not converged
     ethr =  3.25E-11,  avg # of iterations =  4.9

     total cpu time spent up to now is      308.4 secs

     End of self-consistent calculation

     Number of k-points >= 100: set verbosity='high' to print the bands.

     the Fermi energy is     6.1517 ev

!    total energy              =     -96.65878105 Ry
     estimated scf accuracy    <          2.7E-09 Ry
     smearing contrib. (-TS)   =      -0.01921356 Ry
     internal energy E=F+TS    =     -96.63956749 Ry

     The total energy is F=E-TS. E is the sum of the following terms:
     one-electron contribution =       3.94398632 Ry
     hartree contribution      =      14.36223156 Ry
     xc contribution           =     -22.65581545 Ry
     ewald contribution        =     -92.28996993 Ry

     convergence has been achieved in  26 iterations

     Forces acting on atoms (cartesian axes, Ry/au):

     atom    1 type  1   force =    -0.00000000   -0.00000000    0.00000000
     atom    2 type  1   force =     0.00000000    0.00000000    0.00000000
     atom    3 type  2   force =    -0.00000000   -0.00000000    0.00030294
     atom    4 type  2   force =     0.00000000   -0.00000000    0.00030294
     atom    5 type  2   force =     0.00000000   -0.00000000   -0.00030294
     atom    6 type  2   force =     0.00000000    0.00000000   -0.00030294

     Total force =     0.000606     Total SCF correction =     0.000088
     SCF correction compared to forces is large: reduce conv_thr to get better values


     Computing stress (Cartesian axis) and pressure

          total   stress  (Ry/bohr**3)                   (kbar)     P=       -0.90
  -0.00001175   0.00000000   0.00000000           -1.73        0.00        0.00
   0.00000000  -0.00001175   0.00000000            0.00       -1.73        0.00
  -0.00000000  -0.00000000   0.00000511           -0.00       -0.00        0.75


     BFGS Geometry Optimization

     number of scf cycles    =   1
     number of bfgs steps    =   0

     enthalpy new            =     -96.6587810473 Ry

     new trust radius        =       0.0018388733 bohr
     new conv_thr            =       0.0000000100 Ry

     new unit-cell volume =    978.48376 a.u.^3 (   144.99633 Ang^3 )
     density =      5.74492 g/cm^3

CELL_PARAMETERS (angstrom)
   3.488378373   0.000000000  -0.000000000
  -1.744189186   3.021024289  -0.000000000
   0.000000000   0.000000000  13.758757583

ATOMIC_POSITIONS (crystal)
Nb           -0.0000000000       -0.0000000000        0.2500000000
Nb            0.0000000000        0.0000000000        0.7500000000
Se            0.6666666667        0.3333333333        0.6276036527
Se            0.3333333333        0.6666666667        0.1276036527
Se            0.6666666667        0.3333333333        0.8723963473
Se            0.3333333333        0.6666666667        0.3723963473



     Writing output data file ./outdir/NbSe2.save/
     NEW-OLD atomic charge density approx. for the potential
     extrapolated charge   33.98436, renormalised to   34.00000

     total cpu time spent up to now is      310.3 secs

     Self-consistent Calculation

     iteration #  1     ecut=   100.00 Ry     beta= 0.70
     Davidson diagonalization with overlap
     c_bands:  1 eigenvalues not converged
     ethr =  1.00E-06,  avg # of iterations =  1.1

     Threshold (ethr) on eigenvalues was too large:
     Diagonalizing with lowered threshold

     Davidson diagonalization with overlap
     ethr =  9.08E-09,  avg # of iterations =  7.5

     total cpu time spent up to now is      339.3 secs

     total energy              =     -96.65878029 Ry
     estimated scf accuracy    <       0.00001438 Ry

     iteration #  2     ecut=   100.00 Ry     beta= 0.70
     Davidson diagonalization with overlap
     ethr =  4.23E-08,  avg # of iterations =  2.1

     total cpu time spent up to now is      350.0 secs

     total energy              =     -96.65878751 Ry
     estimated scf accuracy    <       0.00000179 Ry

     iteration #  3     ecut=   100.00 Ry     beta= 0.70
     Davidson diagonalization with overlap
     ethr =  5.25E-09,  avg # of iterations =  5.0

     total cpu time spent up to now is      362.8 secs

     total energy              =     -96.65878807 Ry
     estimated scf accuracy    <       0.00000259 Ry

     iteration #  4     ecut=   100.00 Ry     beta= 0.70
     Davidson diagonalization with overlap
     ethr =  5.25E-09,  avg # of iterations =  1.0

     total cpu time spent up to now is      371.1 secs

     total energy              =     -96.65878782 Ry
     estimated scf accuracy    <       0.00000252 Ry

     iteration #  5     ecut=   100.00 Ry     beta= 0.70
     Davidson diagonalization with overlap
     ethr =  5.25E-09,  avg # of iterations =  1.0

     total cpu time spent up to now is      379.4 secs

     total energy              =     -96.65878761 Ry
     estimated scf accuracy    <       0.00000149 Ry

     iteration #  6     ecut=   100.00 Ry     beta= 0.70
     Davidson diagonalization with overlap
     ethr =  4.38E-09,  avg # of iterations =  1.0

     total cpu time spent up to now is      388.1 secs

     total energy              =     -96.65878757 Ry
     estimated scf accuracy    <       0.00000050 Ry

     iteration #  7     ecut=   100.00 Ry     beta= 0.70
     Davidson diagonalization with overlap
     ethr =  1.48E-09,  avg # of iterations =  3.3

     total cpu time spent up to now is      397.6 secs

     total energy              =     -96.65878764 Ry
     estimated scf accuracy    <       0.00000008 Ry

     iteration #  8     ecut=   100.00 Ry     beta= 0.70
     Davidson diagonalization with overlap
     ethr =  2.22E-10,  avg # of iterations =  5.1

     total cpu time spent up to now is      410.3 secs

     total energy              =     -96.65878765 Ry
     estimated scf accuracy    <       0.00000004 Ry

     iteration #  9     ecut=   100.00 Ry     beta= 0.70
     Davidson diagonalization with overlap
     ethr =  1.15E-10,  avg # of iterations =  3.1

     total cpu time spent up to now is      420.8 secs

     End of self-consistent calculation

     Number of k-points >= 100: set verbosity='high' to print the bands.

     the Fermi energy is     6.1565 ev

!    total energy              =     -96.65878766 Ry
     estimated scf accuracy    <          3.9E-09 Ry
     smearing contrib. (-TS)   =      -0.01920580 Ry
     internal energy E=F+TS    =     -96.63958186 Ry

     The total energy is F=E-TS. E is the sum of the following terms:
     one-electron contribution =       3.94115378 Ry
     hartree contribution      =      14.36966012 Ry
     xc contribution           =     -22.65763321 Ry
     ewald contribution        =     -92.29276255 Ry

     convergence has been achieved in   9 iterations

     Forces acting on atoms (cartesian axes, Ry/au):

     atom    1 type  1   force =     0.00000000    0.00000000    0.00000000
     atom    2 type  1   force =     0.00000000    0.00000000    0.00000000
     atom    3 type  2   force =     0.00000000    0.00000000    0.00012850
     atom    4 type  2   force =     0.00000000    0.00000000    0.00012850
     atom    5 type  2   force =     0.00000000    0.00000000   -0.00012850
     atom    6 type  2   force =    -0.00000000   -0.00000000   -0.00012850

     Total force =     0.000257     Total SCF correction =     0.000170
     SCF correction compared to forces is large: reduce conv_thr to get better values


     Computing stress (Cartesian axis) and pressure

          total   stress  (Ry/bohr**3)                   (kbar)     P=       -0.42
  -0.00000773  -0.00000000   0.00000000           -1.14       -0.00        0.00
  -0.00000000  -0.00000773   0.00000000           -0.00       -1.14        0.00
   0.00000000   0.00000000   0.00000693            0.00        0.00        1.02


     number of scf cycles    =   2
     number of bfgs steps    =   1

     enthalpy old            =     -96.6587810473 Ry
     enthalpy new            =     -96.6587876586 Ry

     CASE: enthalpy_new < enthalpy_old

     new trust radius        =       0.0020228899 bohr
     new conv_thr            =            1.0E-10 Ry

     new unit-cell volume =    978.10931 a.u.^3 (   144.94085 Ang^3 )
     density =      5.74712 g/cm^3

CELL_PARAMETERS (angstrom)
   3.487250425  -0.000000000   0.000000000
  -1.743625212   3.020047457  -0.000000000
  -0.000000000   0.000000000  13.762390855

ATOMIC_POSITIONS (crystal)
Nb           -0.0000000000       -0.0000000000        0.2500000000
Nb            0.0000000000        0.0000000000        0.7500000000
Se            0.6666666667        0.3333333333        0.6276127072
Se            0.3333333333        0.6666666667        0.1276127072
Se            0.6666666667        0.3333333333        0.8723872928
Se            0.3333333333        0.6666666667        0.3723872928



     Writing output data file ./outdir/NbSe2.save/
     NEW-OLD atomic charge density approx. for the potential
     extrapolated charge   33.98699, renormalised to   34.00000

     total cpu time spent up to now is      422.8 secs

     Self-consistent Calculation

     iteration #  1     ecut=   100.00 Ry     beta= 0.70
     Davidson diagonalization with overlap
     ethr =  1.00E-06,  avg # of iterations =  1.4

     Threshold (ethr) on eigenvalues was too large:
     Diagonalizing with lowered threshold

     Davidson diagonalization with overlap
     c_bands:  1 eigenvalues not converged
     ethr =  8.66E-09,  avg # of iterations =  7.5

     total cpu time spent up to now is      452.6 secs

     total energy              =     -96.65878746 Ry
     estimated scf accuracy    <       0.00001322 Ry

     iteration #  2     ecut=   100.00 Ry     beta= 0.70
     Davidson diagonalization with overlap
     c_bands:  1 eigenvalues not converged
     ethr =  3.89E-08,  avg # of iterations =  2.0

     total cpu time spent up to now is      463.3 secs

     total energy              =     -96.65879314 Ry
     estimated scf accuracy    <       0.00000101 Ry

     iteration #  3     ecut=   100.00 Ry     beta= 0.70
     Davidson diagonalization with overlap
     c_bands:  1 eigenvalues not converged
     ethr =  2.96E-09,  avg # of iterations =  6.2

     total cpu time spent up to now is      478.0 secs

     total energy              =     -96.65879367 Ry
     estimated scf accuracy    <       0.00000210 Ry

     iteration #  4     ecut=   100.00 Ry     beta= 0.70
     Davidson diagonalization with overlap
     ethr =  2.96E-09,  avg # of iterations =  1.0

     total cpu time spent up to now is      486.5 secs

     total energy              =     -96.65879341 Ry
     estimated scf accuracy    <       0.00000207 Ry

     iteration #  5     ecut=   100.00 Ry     beta= 0.70
     Davidson diagonalization with overlap
     ethr =  2.96E-09,  avg # of iterations =  1.1

     total cpu time spent up to now is      494.9 secs

     total energy              =     -96.65879323 Ry
     estimated scf accuracy    <       0.00000100 Ry

     iteration #  6     ecut=   100.00 Ry     beta= 0.70
     Davidson diagonalization with overlap
     ethr =  2.95E-09,  avg # of iterations =  1.3

     total cpu time spent up to now is      503.4 secs

     total energy              =     -96.65879328 Ry
     estimated scf accuracy    <       0.00000015 Ry

     iteration #  7     ecut=   100.00 Ry     beta= 0.70
     Davidson diagonalization with overlap
     ethr =  4.42E-10,  avg # of iterations =  5.5

     total cpu time spent up to now is      517.3 secs

     total energy              =     -96.65879334 Ry
     estimated scf accuracy    <       0.00000003 Ry

     iteration #  8     ecut=   100.00 Ry     beta= 0.70
     Davidson diagonalization with overlap
     ethr =  9.58E-11,  avg # of iterations =  5.6

     total cpu time spent up to now is      529.9 secs

     total energy              =     -96.65879335 Ry
     estimated scf accuracy    <       0.00000004 Ry

     iteration #  9     ecut=   100.00 Ry     beta= 0.70
     Davidson diagonalization with overlap
     ethr =  9.58E-11,  avg # of iterations =  1.1

     total cpu time spent up to now is      538.3 secs

     total energy              =     -96.65879335 Ry
     estimated scf accuracy    <       0.00000001 Ry

     iteration # 10     ecut=   100.00 Ry     beta= 0.70
     Davidson diagonalization with overlap
     ethr =  4.29E-11,  avg # of iterations =  1.6

     total cpu time spent up to now is      546.9 secs

     total energy              =     -96.65879335 Ry
     estimated scf accuracy    <          5.5E-09 Ry

     iteration # 11     ecut=   100.00 Ry     beta= 0.70
     Davidson diagonalization with overlap
     c_bands:  1 eigenvalues not converged
     ethr =  1.63E-11,  avg # of iterations =  5.0

     total cpu time spent up to now is      560.6 secs

     total energy              =     -96.65879335 Ry
     estimated scf accuracy    <          6.0E-10 Ry

     iteration # 12     ecut=   100.00 Ry     beta= 0.70
     Davidson diagonalization with overlap
     ethr =  1.76E-12,  avg # of iterations =  6.4

     total cpu time spent up to now is      575.3 secs

     total energy              =     -96.65879335 Ry
     estimated scf accuracy    <          1.9E-10 Ry

     iteration # 13     ecut=   100.00 Ry     beta= 0.70
     Davidson diagonalization with overlap
     ethr =  5.64E-13,  avg # of iterations =  3.5

     total cpu time spent up to now is      585.7 secs

     total energy              =     -96.65879335 Ry
     estimated scf accuracy    <          2.9E-10 Ry

     iteration # 14     ecut=   100.00 Ry     beta= 0.70
     Davidson diagonalization with overlap
     ethr =  5.64E-13,  avg # of iterations =  4.0

     total cpu time spent up to now is      597.3 secs

     End of self-consistent calculation

     Number of k-points >= 100: set verbosity='high' to print the bands.

     the Fermi energy is     6.1603 ev

!    total energy              =     -96.65879335 Ry
     estimated scf accuracy    <          5.7E-11 Ry
     smearing contrib. (-TS)   =      -0.01919869 Ry
     internal energy E=F+TS    =     -96.63959467 Ry

     The total energy is F=E-TS. E is the sum of the following terms:
     one-electron contribution =       3.93218080 Ry
     hartree contribution      =      14.37954485 Ry
     xc contribution           =     -22.65915199 Ry
     ewald contribution        =     -92.29216832 Ry

     convergence has been achieved in  14 iterations

     Forces acting on atoms (cartesian axes, Ry/au):

     atom    1 type  1   force =     0.00000000    0.00000000   -0.00000000
     atom    2 type  1   force =     0.00000000    0.00000000   -0.00000000
     atom    3 type  2   force =    -0.00000000   -0.00000000    0.00011107
     atom    4 type  2   force =    -0.00000000    0.00000000    0.00011107
     atom    5 type  2   force =    -0.00000000   -0.00000000   -0.00011107
     atom    6 type  2   force =     0.00000000    0.00000000   -0.00011107

     Total force =     0.000222     Total SCF correction =     0.000016


     Computing stress (Cartesian axis) and pressure

          total   stress  (Ry/bohr**3)                   (kbar)     P=       -0.01
  -0.00000391   0.00000000  -0.00000000           -0.57        0.00       -0.00
   0.00000000  -0.00000391  -0.00000000            0.00       -0.57       -0.00
  -0.00000000   0.00000000   0.00000755           -0.00        0.00        1.11


     number of scf cycles    =   3
     number of bfgs steps    =   2

     enthalpy old            =     -96.6587876586 Ry
     enthalpy new            =     -96.6587933549 Ry

     CASE: enthalpy_new < enthalpy_old

     new trust radius        =       0.0030347354 bohr
     new conv_thr            =            1.0E-10 Ry

     new unit-cell volume =    977.79420 a.u.^3 (   144.89415 Ang^3 )
     density =      5.74897 g/cm^3

CELL_PARAMETERS (angstrom)
   3.485843138   0.000000000   0.000000000
  -1.742921569   3.018828711  -0.000000000
  -0.000000000   0.000000000  13.769068003

ATOMIC_POSITIONS (crystal)
Nb            0.0000000000        0.0000000000        0.2500000000
Nb            0.0000000000        0.0000000000        0.7500000000
Se            0.6666666667        0.3333333333        0.6276280777
Se            0.3333333333        0.6666666667        0.1276280777
Se            0.6666666667        0.3333333333        0.8723719223
Se            0.3333333333        0.6666666667        0.3723719223



     Writing output data file ./outdir/NbSe2.save/
     NEW-OLD atomic charge density approx. for the potential
     extrapolated charge   33.98905, renormalised to   34.00000

     total cpu time spent up to now is      599.3 secs

     Self-consistent Calculation

     iteration #  1     ecut=   100.00 Ry     beta= 0.70
     Davidson diagonalization with overlap
     ethr =  1.00E-06,  avg # of iterations =  2.0

     Threshold (ethr) on eigenvalues was too large:
     Diagonalizing with lowered threshold

     Davidson diagonalization with overlap
     ethr =  6.84E-09,  avg # of iterations =  8.3

     total cpu time spent up to now is      632.4 secs

     total energy              =     -96.65879425 Ry
     estimated scf accuracy    <       0.00000833 Ry

     iteration #  2     ecut=   100.00 Ry     beta= 0.70
     Davidson diagonalization with overlap
     ethr =  2.45E-08,  avg # of iterations =  2.3

     total cpu time spent up to now is      643.2 secs

     total energy              =     -96.65879819 Ry
     estimated scf accuracy    <       0.00000072 Ry

     iteration #  3     ecut=   100.00 Ry     beta= 0.70
     Davidson diagonalization with overlap
     ethr =  2.10E-09,  avg # of iterations =  6.3

     total cpu time spent up to now is      658.4 secs

     total energy              =     -96.65879860 Ry
     estimated scf accuracy    <       0.00000149 Ry

     iteration #  4     ecut=   100.00 Ry     beta= 0.70
     Davidson diagonalization with overlap
     ethr =  2.10E-09,  avg # of iterations =  1.1

     total cpu time spent up to now is      666.8 secs

     total energy              =     -96.65879856 Ry
     estimated scf accuracy    <       0.00000165 Ry

     iteration #  5     ecut=   100.00 Ry     beta= 0.70
     Davidson diagonalization with overlap
     ethr =  2.10E-09,  avg # of iterations =  1.0

     total cpu time spent up to now is      675.2 secs

     total energy              =     -96.65879836 Ry
     estimated scf accuracy    <       0.00000135 Ry

     iteration #  6     ecut=   100.00 Ry     beta= 0.70
     Davidson diagonalization with overlap
     ethr =  2.10E-09,  avg # of iterations =  1.6

     total cpu time spent up to now is      683.9 secs

     total energy              =     -96.65879852 Ry
     estimated scf accuracy    <       0.00000042 Ry

     iteration #  7     ecut=   100.00 Ry     beta= 0.70
     Davidson diagonalization with overlap
     ethr =  1.22E-09,  avg # of iterations =  1.0

     total cpu time spent up to now is      692.4 secs

     total energy              =     -96.65879861 Ry
     estimated scf accuracy    <       0.00000078 Ry

     iteration #  8     ecut=   100.00 Ry     beta= 0.70
     Davidson diagonalization with overlap
     ethr =  1.22E-09,  avg # of iterations =  1.0

     total cpu time spent up to now is      700.8 secs

     total energy              =     -96.65879830 Ry
     estimated scf accuracy    <       0.00000108 Ry

     iteration #  9     ecut=   100.00 Ry     beta= 0.70
     Davidson diagonalization with overlap
     ethr =  1.22E-09,  avg # of iterations =  2.0

     total cpu time spent up to now is      710.4 secs

     total energy              =     -96.65879825 Ry
     estimated scf accuracy    <       0.00000017 Ry

     iteration # 10     ecut=   100.00 Ry     beta= 0.70
     Davidson diagonalization with overlap
     ethr =  4.99E-10,  avg # of iterations =  6.4

     total cpu time spent up to now is      727.4 secs

     total energy              =     -96.65879855 Ry
     estimated scf accuracy    <       0.00000071 Ry

     iteration # 11     ecut=   100.00 Ry     beta= 0.70
     Davidson diagonalization with overlap
     ethr =  4.99E-10,  avg # of iterations =  1.4

     total cpu time spent up to now is      735.9 secs

     total energy              =     -96.65879831 Ry
     estimated scf accuracy    <       0.00000092 Ry

     iteration # 12     ecut=   100.00 Ry     beta= 0.70
     Davidson diagonalization with overlap
     ethr =  4.99E-10,  avg # of iterations =  2.0

     total cpu time spent up to now is      746.7 secs

     total energy              =     -96.65879834 Ry
     estimated scf accuracy    <       0.00000014 Ry

     iteration # 13     ecut=   100.00 Ry     beta= 0.70
     Davidson diagonalization with overlap
     ethr =  4.09E-10,  avg # of iterations =  2.4

     total cpu time spent up to now is      756.5 secs

     total energy              =     -96.65879836 Ry
     estimated scf accuracy    <       0.00000002 Ry

     iteration # 14     ecut=   100.00 Ry     beta= 0.70
     Davidson diagonalization with overlap
     ethr =  5.82E-11,  avg # of iterations =  5.9

     total cpu time spent up to now is      771.4 secs

     total energy              =     -96.65879837 Ry
     estimated scf accuracy    <          2.2E-09 Ry

     iteration # 15     ecut=   100.00 Ry     beta= 0.70
     Davidson diagonalization with overlap
     ethr =  6.53E-12,  avg # of iterations =  6.2

     total cpu time spent up to now is      785.5 secs

     total energy              =     -96.65879837 Ry
     estimated scf accuracy    <          4.0E-09 Ry

     iteration # 16     ecut=   100.00 Ry     beta= 0.70
     Davidson diagonalization with overlap
     ethr =  6.53E-12,  avg # of iterations =  2.2

     total cpu time spent up to now is      796.0 secs

     End of self-consistent calculation

     Number of k-points >= 100: set verbosity='high' to print the bands.

     the Fermi energy is     6.1633 ev

!    total energy              =     -96.65879837 Ry
     estimated scf accuracy    <          2.4E-11 Ry
     smearing contrib. (-TS)   =      -0.01919135 Ry
     internal energy E=F+TS    =     -96.63960702 Ry

     The total energy is F=E-TS. E is the sum of the following terms:
     one-electron contribution =       3.90670583 Ry
     hartree contribution      =      14.39677790 Ry
     xc contribution           =     -22.66058012 Ry
     ewald contribution        =     -92.28251063 Ry

     convergence has been achieved in  16 iterations

     Forces acting on atoms (cartesian axes, Ry/au):

     atom    1 type  1   force =     0.00000000    0.00000000    0.00000000
     atom    2 type  1   force =    -0.00000000    0.00000000    0.00000000
     atom    3 type  2   force =    -0.00000000    0.00000000    0.00016751
     atom    4 type  2   force =    -0.00000000   -0.00000000    0.00016751
     atom    5 type  2   force =     0.00000000   -0.00000000   -0.00016751
     atom    6 type  2   force =     0.00000000    0.00000000   -0.00016751

     Total force =     0.000335     Total SCF correction =     0.000007


     Computing stress (Cartesian axis) and pressure

          total   stress  (Ry/bohr**3)                   (kbar)     P=        0.35
   0.00000029  -0.00000000  -0.00000000            0.04       -0.00       -0.00
  -0.00000000   0.00000029   0.00000000           -0.00        0.04        0.00
  -0.00000000   0.00000000   0.00000661           -0.00        0.00        0.97


     number of scf cycles    =   4
     number of bfgs steps    =   3

     enthalpy old            =     -96.6587933549 Ry
     enthalpy new            =     -96.6587983719 Ry

     CASE: enthalpy_new < enthalpy_old

     new trust radius        =       0.0038320335 bohr
     new conv_thr            =            1.0E-10 Ry

     new unit-cell volume =    977.73581 a.u.^3 (   144.88550 Ang^3 )
     density =      5.74932 g/cm^3

CELL_PARAMETERS (angstrom)
   3.484671619   0.000000000   0.000000000
  -1.742335810   3.017814146  -0.000000000
  -0.000000000   0.000000000  13.777504849

ATOMIC_POSITIONS (crystal)
Nb            0.0000000000        0.0000000000        0.2500000000
Nb            0.0000000000        0.0000000000        0.7500000000
Se            0.6666666667        0.3333333333        0.6276529306
Se            0.3333333333        0.6666666667        0.1276529306
Se            0.6666666667        0.3333333333        0.8723470694
Se            0.3333333333        0.6666666667        0.3723470694



     Writing output data file ./outdir/NbSe2.save/
     NEW-OLD atomic charge density approx. for the potential
     extrapolated charge   33.99797, renormalised to   34.00000

     total cpu time spent up to now is      797.9 secs

     Self-consistent Calculation

     iteration #  1     ecut=   100.00 Ry     beta= 0.70
     Davidson diagonalization with overlap
     ethr =  1.00E-06,  avg # of iterations =  2.0

     Threshold (ethr) on eigenvalues was too large:
     Diagonalizing with lowered threshold

     Davidson diagonalization with overlap
     ethr =  9.15E-09,  avg # of iterations =  7.0

     total cpu time spent up to now is      827.8 secs

     total energy              =     -96.65880055 Ry
     estimated scf accuracy    <       0.00000032 Ry

     iteration #  2     ecut=   100.00 Ry     beta= 0.70
     Davidson diagonalization with overlap
     ethr =  9.55E-10,  avg # of iterations =  7.1

     total cpu time spent up to now is      843.9 secs

     total energy              =     -96.65880108 Ry
     estimated scf accuracy    <       0.00000002 Ry

     iteration #  3     ecut=   100.00 Ry     beta= 0.70
     Davidson diagonalization with overlap
     c_bands:  1 eigenvalues not converged
     ethr =  6.61E-11,  avg # of iterations =  8.0

     total cpu time spent up to now is      861.9 secs

     total energy              =     -96.65880114 Ry
     estimated scf accuracy    <          7.2E-09 Ry

     iteration #  4     ecut=   100.00 Ry     beta= 0.70
     Davidson diagonalization with overlap
     ethr =  2.13E-11,  avg # of iterations =  3.6

     total cpu time spent up to now is      872.5 secs

     total energy              =     -96.65880114 Ry
     estimated scf accuracy    <          6.9E-10 Ry

     iteration #  5     ecut=   100.00 Ry     beta= 0.70
     Davidson diagonalization with overlap
     ethr =  2.03E-12,  avg # of iterations =  7.9

     total cpu time spent up to now is      890.3 secs

     total energy              =     -96.65880115 Ry
     estimated scf accuracy    <          1.0E-10 Ry

     iteration #  6     ecut=   100.00 Ry     beta= 0.70
     Davidson diagonalization with overlap
     ethr =  3.03E-13,  avg # of iterations =  6.1

     total cpu time spent up to now is      903.6 secs

     End of self-consistent calculation

     Number of k-points >= 100: set verbosity='high' to print the bands.

     the Fermi energy is     6.1634 ev

!    total energy              =     -96.65880115 Ry
     estimated scf accuracy    <          1.6E-11 Ry
     smearing contrib. (-TS)   =      -0.01918618 Ry
     internal energy E=F+TS    =     -96.63961497 Ry

     The total energy is F=E-TS. E is the sum of the following terms:
     one-electron contribution =       3.86000417 Ry
     hartree contribution      =      14.42103177 Ry
     xc contribution           =     -22.66136755 Ry
     ewald contribution        =     -92.25928335 Ry

     convergence has been achieved in   6 iterations

     Forces acting on atoms (cartesian axes, Ry/au):

     atom    1 type  1   force =     0.00000000    0.00000000    0.00000000
     atom    2 type  1   force =     0.00000000    0.00000000    0.00000000
     atom    3 type  2   force =    -0.00000000   -0.00000000    0.00031574
     atom    4 type  2   force =    -0.00000000   -0.00000000    0.00031574
     atom    5 type  2   force =     0.00000000    0.00000000   -0.00031574
     atom    6 type  2   force =     0.00000000    0.00000000   -0.00031574

     Total force =     0.000631     Total SCF correction =     0.000008


     Computing stress (Cartesian axis) and pressure

          total   stress  (Ry/bohr**3)                   (kbar)     P=        0.55
   0.00000335  -0.00000000  -0.00000000            0.49       -0.00       -0.00
  -0.00000000   0.00000335   0.00000000           -0.00        0.49        0.00
  -0.00000000  -0.00000000   0.00000452           -0.00       -0.00        0.66


     number of scf cycles    =   5
     number of bfgs steps    =   4

     enthalpy old            =     -96.6587983719 Ry
     enthalpy new            =     -96.6588011451 Ry

     CASE: enthalpy_new < enthalpy_old

     new trust radius        =       0.0031248650 bohr
     new conv_thr            =            1.0E-10 Ry

     new unit-cell volume =    977.96417 a.u.^3 (   144.91934 Ang^3 )
     density =      5.74798 g/cm^3

CELL_PARAMETERS (angstrom)
   3.484208154  -0.000000000   0.000000000
  -1.742104077   3.017412773  -0.000000000
  -0.000000000   0.000000000  13.784389170

ATOMIC_POSITIONS (crystal)
Nb            0.0000000000        0.0000000000        0.2500000000
Nb            0.0000000000        0.0000000000        0.7500000000
Se            0.6666666667        0.3333333333        0.6276853713
Se            0.3333333333        0.6666666667        0.1276853713
Se            0.6666666667        0.3333333333        0.8723146287
Se            0.3333333333        0.6666666667        0.3723146287



     Writing output data file ./outdir/NbSe2.save/
     NEW-OLD atomic charge density approx. for the potential
     extrapolated charge   34.00794, renormalised to   34.00000

     total cpu time spent up to now is      905.5 secs

     Self-consistent Calculation

     iteration #  1     ecut=   100.00 Ry     beta= 0.70
     Davidson diagonalization with overlap
     ethr =  1.00E-06,  avg # of iterations =  2.0

     Threshold (ethr) on eigenvalues was too large:
     Diagonalizing with lowered threshold

     Davidson diagonalization with overlap
     ethr =  2.14E-08,  avg # of iterations =  3.9

     total cpu time spent up to now is      927.8 secs

     total energy              =     -96.65880028 Ry
     estimated scf accuracy    <       0.00000411 Ry

     iteration #  2     ecut=   100.00 Ry     beta= 0.70
     Davidson diagonalization with overlap
     ethr =  1.21E-08,  avg # of iterations =  4.2

     total cpu time spent up to now is      940.7 secs

     total energy              =     -96.65880312 Ry
     estimated scf accuracy    <       0.00000111 Ry

     iteration #  3     ecut=   100.00 Ry     beta= 0.70
     Davidson diagonalization with overlap
     ethr =  3.26E-09,  avg # of iterations =  2.7

     total cpu time spent up to now is      950.4 secs

     total energy              =     -96.65880313 Ry
     estimated scf accuracy    <       0.00000079 Ry

     iteration #  4     ecut=   100.00 Ry     beta= 0.70
     Davidson diagonalization with overlap
     ethr =  2.31E-09,  avg # of iterations =  1.3

     total cpu time spent up to now is      958.9 secs

     total energy              =     -96.65880318 Ry
     estimated scf accuracy    <       0.00000019 Ry

     iteration #  5     ecut=   100.00 Ry     beta= 0.70
     Davidson diagonalization with overlap
     ethr =  5.51E-10,  avg # of iterations =  3.0

     total cpu time spent up to now is      968.4 secs

     total energy              =     -96.65880317 Ry
     estimated scf accuracy    <       0.00000012 Ry

     iteration #  6     ecut=   100.00 Ry     beta= 0.70
     Davidson diagonalization with overlap
     ethr =  3.58E-10,  avg # of iterations =  4.0

     total cpu time spent up to now is      979.8 secs

     total energy              =     -96.65880320 Ry
     estimated scf accuracy    <          3.7E-09 Ry

     iteration #  7     ecut=   100.00 Ry     beta= 0.70
     Davidson diagonalization with overlap
     ethr =  1.09E-11,  avg # of iterations = 10.6

     total cpu time spent up to now is     1004.9 secs

     total energy              =     -96.65880321 Ry
     estimated scf accuracy    <       0.00000001 Ry

     iteration #  8     ecut=   100.00 Ry     beta= 0.70
     Davidson diagonalization with overlap
     ethr =  1.09E-11,  avg # of iterations =  1.1

     total cpu time spent up to now is     1013.3 secs

     total energy              =     -96.65880321 Ry
     estimated scf accuracy    <       0.00000001 Ry

     iteration #  9     ecut=   100.00 Ry     beta= 0.70
     Davidson diagonalization with overlap
     ethr =  1.09E-11,  avg # of iterations =  3.8

     total cpu time spent up to now is     1025.0 secs

     End of self-consistent calculation

     Number of k-points >= 100: set verbosity='high' to print the bands.

     the Fermi energy is     6.1605 ev

!    total energy              =     -96.65880321 Ry
     estimated scf accuracy    <          8.2E-12 Ry
     smearing contrib. (-TS)   =      -0.01918472 Ry
     internal energy E=F+TS    =     -96.63961849 Ry

     The total energy is F=E-TS. E is the sum of the following terms:
     one-electron contribution =       3.80315908 Ry
     hartree contribution      =      14.44621151 Ry
     xc contribution           =     -22.66138490 Ry
     ewald contribution        =     -92.22760417 Ry

     convergence has been achieved in   9 iterations

     Forces acting on atoms (cartesian axes, Ry/au):

     atom    1 type  1   force =     0.00000000    0.00000000   -0.00000000
     atom    2 type  1   force =    -0.00000000   -0.00000000    0.00000000
     atom    3 type  2   force =    -0.00000000   -0.00000000    0.00043131
     atom    4 type  2   force =    -0.00000000   -0.00000000    0.00043131
     atom    5 type  2   force =    -0.00000000    0.00000000   -0.00043131
     atom    6 type  2   force =    -0.00000000    0.00000000   -0.00043131

     Total force =     0.000863     Total SCF correction =     0.000005


     Computing stress (Cartesian axis) and pressure

          total   stress  (Ry/bohr**3)                   (kbar)     P=        0.55
   0.00000424  -0.00000000  -0.00000000            0.62       -0.00       -0.00
  -0.00000000   0.00000424  -0.00000000           -0.00        0.62       -0.00
  -0.00000000  -0.00000000   0.00000278           -0.00       -0.00        0.41


     number of scf cycles    =   6
     number of bfgs steps    =   5

     enthalpy old            =     -96.6588011451 Ry
     enthalpy new            =     -96.6588032113 Ry

     CASE: enthalpy_new < enthalpy_old

     new trust radius        =       0.0046855036 bohr
     new conv_thr            =            1.0E-10 Ry

     new unit-cell volume =    978.49041 a.u.^3 (   144.99732 Ang^3 )
     density =      5.74488 g/cm^3

CELL_PARAMETERS (angstrom)
   3.483840737  -0.000000000   0.000000000
  -1.741920369   3.017094581  -0.000000000
  -0.000000000  -0.000000000  13.794715651

ATOMIC_POSITIONS (crystal)
Nb            0.0000000000        0.0000000000        0.2500000000
Nb            0.0000000000        0.0000000000        0.7500000000
Se            0.6666666667        0.3333333333        0.6277476990
Se            0.3333333333        0.6666666667        0.1277476990
Se            0.6666666667        0.3333333333        0.8722523010
Se            0.3333333333        0.6666666667        0.3722523010



     Writing output data file ./outdir/NbSe2.save/
     NEW-OLD atomic charge density approx. for the potential
     extrapolated charge   34.01828, renormalised to   34.00000

     total cpu time spent up to now is     1026.9 secs

     Self-consistent Calculation

     iteration #  1     ecut=   100.00 Ry     beta= 0.70
     Davidson diagonalization with overlap
     ethr =  1.00E-06,  avg # of iterations =  2.0

     Threshold (ethr) on eigenvalues was too large:
     Diagonalizing with lowered threshold

     Davidson diagonalization with overlap
     ethr =  7.53E-08,  avg # of iterations =  2.3

     total cpu time spent up to now is     1047.4 secs

     total energy              =     -96.65879346 Ry
     estimated scf accuracy    <       0.00002072 Ry

     iteration #  2     ecut=   100.00 Ry     beta= 0.70
     Davidson diagonalization with overlap
     ethr =  6.09E-08,  avg # of iterations =  3.8

     total cpu time spent up to now is     1060.1 secs

     total energy              =     -96.65880677 Ry
     estimated scf accuracy    <       0.00000538 Ry

     iteration #  3     ecut=   100.00 Ry     beta= 0.70
     Davidson diagonalization with overlap
     ethr =  1.58E-08,  avg # of iterations =  2.1

     total cpu time spent up to now is     1069.3 secs

     total energy              =     -96.65880667 Ry
     estimated scf accuracy    <       0.00000347 Ry

     iteration #  4     ecut=   100.00 Ry     beta= 0.70
     Davidson diagonalization with overlap
     ethr =  1.02E-08,  avg # of iterations =  1.1

     total cpu time spent up to now is     1077.8 secs

     total energy              =     -96.65880674 Ry
     estimated scf accuracy    <       0.00000114 Ry

     iteration #  5     ecut=   100.00 Ry     beta= 0.70
     Davidson diagonalization with overlap
     ethr =  3.35E-09,  avg # of iterations =  1.4

     total cpu time spent up to now is     1086.3 secs

     total energy              =     -96.65880661 Ry
     estimated scf accuracy    <       0.00000062 Ry

     iteration #  6     ecut=   100.00 Ry     beta= 0.70
     Davidson diagonalization with overlap
     ethr =  1.81E-09,  avg # of iterations =  3.8

     total cpu time spent up to now is     1097.8 secs

     total energy              =     -96.65880678 Ry
     estimated scf accuracy    <          3.4E-09 Ry

     iteration #  7     ecut=   100.00 Ry     beta= 0.70
     Davidson diagonalization with overlap
     c_bands:  1 eigenvalues not converged
     c_bands:  1 eigenvalues not converged
     c_bands:  1 eigenvalues not converged
     c_bands:  1 eigenvalues not converged
     c_bands:  1 eigenvalues not converged
     c_bands:  1 eigenvalues not converged
     c_bands:  1 eigenvalues not converged
     c_bands:  1 eigenvalues not converged
     c_bands:  1 eigenvalues not converged
     c_bands:  1 eigenvalues not converged
     ethr =  9.92E-12,  avg # of iterations = 15.3

     total cpu time spent up to now is     1132.8 secs

     total energy              =     -96.65880683 Ry
     estimated scf accuracy    <       0.00000004 Ry

     iteration #  8     ecut=   100.00 Ry     beta= 0.70
     Davidson diagonalization with overlap
     ethr =  9.92E-12,  avg # of iterations =  1.4

     total cpu time spent up to now is     1141.4 secs

     total energy              =     -96.65880680 Ry
     estimated scf accuracy    <       0.00000005 Ry

     iteration #  9     ecut=   100.00 Ry     beta= 0.70
     Davidson diagonalization with overlap
     ethr =  9.92E-12,  avg # of iterations =  8.8

     total cpu time spent up to now is     1162.8 secs

     total energy              =     -96.65880683 Ry
     estimated scf accuracy    <       0.00000007 Ry

     iteration # 10     ecut=   100.00 Ry     beta= 0.70
     Davidson diagonalization with overlap
     ethr =  9.92E-12,  avg # of iterations =  1.2

     total cpu time spent up to now is     1171.3 secs

     total energy              =     -96.65880681 Ry
     estimated scf accuracy    <       0.00000007 Ry

     iteration # 11     ecut=   100.00 Ry     beta= 0.70
     Davidson diagonalization with overlap
     ethr =  9.92E-12,  avg # of iterations =  7.5

     total cpu time spent up to now is     1188.6 secs

     total energy              =     -96.65880682 Ry
     estimated scf accuracy    <          2.2E-10 Ry

     iteration # 12     ecut=   100.00 Ry     beta= 0.70
     Davidson diagonalization with overlap
     ethr =  6.50E-13,  avg # of iterations =  5.9

     total cpu time spent up to now is     1203.0 secs

     End of self-consistent calculation

     Number of k-points >= 100: set verbosity='high' to print the bands.

     the Fermi energy is     6.1540 ev

!    total energy              =     -96.65880682 Ry
     estimated scf accuracy    <          6.3E-11 Ry
     smearing contrib. (-TS)   =      -0.01918356 Ry
     internal energy E=F+TS    =     -96.63962326 Ry

     The total energy is F=E-TS. E is the sum of the following terms:
     one-electron contribution =       3.70025944 Ry
     hartree contribution      =      14.49009929 Ry
     xc contribution           =     -22.66115093 Ry
     ewald contribution        =     -92.16883106 Ry

     convergence has been achieved in  12 iterations

     Forces acting on atoms (cartesian axes, Ry/au):

     atom    1 type  1   force =     0.00000000    0.00000000    0.00000000
     atom    2 type  1   force =    -0.00000000   -0.00000000   -0.00000000
     atom    3 type  2   force =    -0.00000000   -0.00000000    0.00056959
     atom    4 type  2   force =    -0.00000000    0.00000000    0.00056959
     atom    5 type  2   force =     0.00000000   -0.00000000   -0.00056959
     atom    6 type  2   force =     0.00000000   -0.00000000   -0.00056959

     Total force =     0.001139     Total SCF correction =     0.000015


     Computing stress (Cartesian axis) and pressure

          total   stress  (Ry/bohr**3)                   (kbar)     P=        0.50
   0.00000473  -0.00000000   0.00000000            0.70       -0.00        0.00
  -0.00000000   0.00000473   0.00000000           -0.00        0.70        0.00
   0.00000000   0.00000000   0.00000071            0.00        0.00        0.10


     number of scf cycles    =   7
     number of bfgs steps    =   6

     enthalpy old            =     -96.6588032113 Ry
     enthalpy new            =     -96.6588068198 Ry

     CASE: enthalpy_new < enthalpy_old

     new trust radius        =       0.0070248835 bohr
     new conv_thr            =            1.0E-10 Ry

     new unit-cell volume =    979.41150 a.u.^3 (   145.13381 Ang^3 )
     density =      5.73948 g/cm^3

CELL_PARAMETERS (angstrom)
   3.483524868  -0.000000000   0.000000000
  -1.741762434   3.016821030  -0.000000000
  -0.000000000  -0.000000000  13.810205372

ATOMIC_POSITIONS (crystal)
Nb            0.0000000000        0.0000000000        0.2500000000
Nb            0.0000000000        0.0000000000        0.7500000000
Se            0.6666666667        0.3333333333        0.6278552295
Se            0.3333333333        0.6666666667        0.1278552295
Se            0.6666666667        0.3333333333        0.8721447705
Se            0.3333333333        0.6666666667        0.3721447705



     Writing output data file ./outdir/NbSe2.save/
     NEW-OLD atomic charge density approx. for the potential
     extrapolated charge   34.03197, renormalised to   34.00000

     total cpu time spent up to now is     1204.9 secs

     Self-consistent Calculation

     iteration #  1     ecut=   100.00 Ry     beta= 0.70
     Davidson diagonalization with overlap
     ethr =  1.00E-06,  avg # of iterations =  3.0

     total cpu time spent up to now is     1217.5 secs

     total energy              =     -96.65876737 Ry
     estimated scf accuracy    <       0.00006915 Ry

     iteration #  2     ecut=   100.00 Ry     beta= 0.70
     Davidson diagonalization with overlap
     ethr =  2.03E-07,  avg # of iterations =  3.2

     total cpu time spent up to now is     1229.5 secs

     total energy              =     -96.65881294 Ry
     estimated scf accuracy    <       0.00001752 Ry

     iteration #  3     ecut=   100.00 Ry     beta= 0.70
     Davidson diagonalization with overlap
     ethr =  5.15E-08,  avg # of iterations =  1.3

     total cpu time spent up to now is     1237.9 secs

     total energy              =     -96.65881226 Ry
     estimated scf accuracy    <       0.00001058 Ry

     iteration #  4     ecut=   100.00 Ry     beta= 0.70
     Davidson diagonalization with overlap
     ethr =  3.11E-08,  avg # of iterations =  1.1

     total cpu time spent up to now is     1246.3 secs

     total energy              =     -96.65881227 Ry
     estimated scf accuracy    <       0.00000399 Ry

     iteration #  5     ecut=   100.00 Ry     beta= 0.70
     Davidson diagonalization with overlap
     ethr =  1.17E-08,  avg # of iterations =  1.9

     total cpu time spent up to now is     1255.0 secs

     total energy              =     -96.65881207 Ry
     estimated scf accuracy    <       0.00000175 Ry

     iteration #  6     ecut=   100.00 Ry     beta= 0.70
     Davidson diagonalization with overlap
     ethr =  5.16E-09,  avg # of iterations =  3.8

     total cpu time spent up to now is     1266.6 secs

     total energy              =     -96.65881249 Ry
     estimated scf accuracy    <       0.00000005 Ry

     iteration #  7     ecut=   100.00 Ry     beta= 0.70
     Davidson diagonalization with overlap
     ethr =  1.36E-10,  avg # of iterations =  9.8

     total cpu time spent up to now is     1289.1 secs

     total energy              =     -96.65881261 Ry
     estimated scf accuracy    <       0.00000002 Ry

     iteration #  8     ecut=   100.00 Ry     beta= 0.70
     Davidson diagonalization with overlap
     ethr =  4.75E-11,  avg # of iterations =  6.3

     total cpu time spent up to now is     1303.5 secs

     total energy              =     -96.65881258 Ry
     estimated scf accuracy    <       0.00000017 Ry

     iteration #  9     ecut=   100.00 Ry     beta= 0.70
     Davidson diagonalization with overlap
     ethr =  4.75E-11,  avg # of iterations =  5.0

     total cpu time spent up to now is     1317.1 secs

     total energy              =     -96.65881262 Ry
     estimated scf accuracy    <       0.00000001 Ry

     iteration # 10     ecut=   100.00 Ry     beta= 0.70
     Davidson diagonalization with overlap
     ethr =  4.27E-11,  avg # of iterations =  8.1

     total cpu time spent up to now is     1337.3 secs

     total energy              =     -96.65881270 Ry
     estimated scf accuracy    <       0.00000050 Ry

     iteration # 11     ecut=   100.00 Ry     beta= 0.70
     Davidson diagonalization with overlap
     ethr =  4.27E-11,  avg # of iterations =  1.7

     total cpu time spent up to now is     1346.2 secs

     total energy              =     -96.65881261 Ry
     estimated scf accuracy    <       0.00000058 Ry

     iteration # 12     ecut=   100.00 Ry     beta= 0.70
     Davidson diagonalization with overlap
     ethr =  4.27E-11,  avg # of iterations =  4.6

     total cpu time spent up to now is     1359.3 secs

     total energy              =     -96.65881262 Ry
     estimated scf accuracy    <       0.00000018 Ry

     iteration # 13     ecut=   100.00 Ry     beta= 0.70
     Davidson diagonalization with overlap
     ethr =  4.27E-11,  avg # of iterations =  1.9

     total cpu time spent up to now is     1368.1 secs

     total energy              =     -96.65881261 Ry
     estimated scf accuracy    <       0.00000014 Ry

     iteration # 14     ecut=   100.00 Ry     beta= 0.70
     Davidson diagonalization with overlap
     ethr =  4.27E-11,  avg # of iterations =  2.7

     total cpu time spent up to now is     1377.7 secs

     total energy              =     -96.65881260 Ry
     estimated scf accuracy    <       0.00000010 Ry

     iteration # 15     ecut=   100.00 Ry     beta= 0.70
     Davidson diagonalization with overlap
     ethr =  4.27E-11,  avg # of iterations =  4.8

     total cpu time spent up to now is     1391.1 secs

     total energy              =     -96.65881260 Ry
     estimated scf accuracy    <       0.00000002 Ry

     iteration # 16     ecut=   100.00 Ry     beta= 0.70
     Davidson diagonalization with overlap
     ethr =  4.27E-11,  avg # of iterations =  4.8

     total cpu time spent up to now is     1404.3 secs

     total energy              =     -96.65881260 Ry
     estimated scf accuracy    <          8.2E-09 Ry

     iteration # 17     ecut=   100.00 Ry     beta= 0.70
     Davidson diagonalization with overlap
     ethr =  2.42E-11,  avg # of iterations =  1.3

     total cpu time spent up to now is     1412.8 secs

     total energy              =     -96.65881261 Ry
     estimated scf accuracy    <          8.2E-09 Ry

     iteration # 18     ecut=   100.00 Ry     beta= 0.70
     Davidson diagonalization with overlap
     ethr =  2.40E-11,  avg # of iterations =  1.0

     total cpu time spent up to now is     1421.1 secs

     total energy              =     -96.65881260 Ry
     estimated scf accuracy    <          9.8E-09 Ry

     iteration # 19     ecut=   100.00 Ry     beta= 0.70
     Davidson diagonalization with overlap
     ethr =  2.40E-11,  avg # of iterations =  1.0

     total cpu time spent up to now is     1429.4 secs

     total energy              =     -96.65881260 Ry
     estimated scf accuracy    <          6.8E-09 Ry

     iteration # 20     ecut=   100.00 Ry     beta= 0.70
     Davidson diagonalization with overlap
     ethr =  2.01E-11,  avg # of iterations =  1.0

     total cpu time spent up to now is     1437.8 secs

     total energy              =     -96.65881260 Ry
     estimated scf accuracy    <          1.5E-09 Ry

     iteration # 21     ecut=   100.00 Ry     beta= 0.70
     Davidson diagonalization with overlap
     ethr =  4.28E-12,  avg # of iterations =  2.0

     total cpu time spent up to now is     1446.6 secs

     total energy              =     -96.65881260 Ry
     estimated scf accuracy    <          1.1E-09 Ry

     iteration # 22     ecut=   100.00 Ry     beta= 0.70
     Davidson diagonalization with overlap
     ethr =  3.35E-12,  avg # of iterations =  4.5

     total cpu time spent up to now is     1458.8 secs

     total energy              =     -96.65881260 Ry
     estimated scf accuracy    <          4.1E-10 Ry

     iteration # 23     ecut=   100.00 Ry     beta= 0.70
     Davidson diagonalization with overlap
     ethr =  1.21E-12,  avg # of iterations =  8.1

     total cpu time spent up to now is     1477.1 secs

     total energy              =     -96.65881260 Ry
     estimated scf accuracy    <          8.2E-09 Ry

     iteration # 24     ecut=   100.00 Ry     beta= 0.70
     Davidson diagonalization with overlap
     ethr =  1.21E-12,  avg # of iterations =  6.4

     total cpu time spent up to now is     1491.9 secs

     total energy              =     -96.65881260 Ry
     estimated scf accuracy    <          3.6E-10 Ry

     iteration # 25     ecut=   100.00 Ry     beta= 0.70
     Davidson diagonalization with overlap
     ethr =  1.06E-12,  avg # of iterations =  1.9

     total cpu time spent up to now is     1500.9 secs

     total energy              =     -96.65881260 Ry
     estimated scf accuracy    <          1.1E-09 Ry

     iteration # 26     ecut=   100.00 Ry     beta= 0.70
     Davidson diagonalization with overlap
     ethr =  1.06E-12,  avg # of iterations =  1.0

     total cpu time spent up to now is     1509.2 secs

     total energy              =     -96.65881260 Ry
     estimated scf accuracy    <          5.2E-10 Ry

     iteration # 27     ecut=   100.00 Ry     beta= 0.70
     Davidson diagonalization with overlap
     ethr =  1.06E-12,  avg # of iterations =  2.8

     total cpu time spent up to now is     1519.7 secs

     End of self-consistent calculation

     Number of k-points >= 100: set verbosity='high' to print the bands.

     the Fermi energy is     6.1429 ev

!    total energy              =     -96.65881260 Ry
     estimated scf accuracy    <          1.6E-11 Ry
     smearing contrib. (-TS)   =      -0.01918256 Ry
     internal energy E=F+TS    =     -96.63963005 Ry

     The total energy is F=E-TS. E is the sum of the following terms:
     one-electron contribution =       3.52912121 Ry
     hartree contribution      =      14.56231128 Ry
     xc contribution           =     -22.66072128 Ry
     ewald contribution        =     -92.07034126 Ry

     convergence has been achieved in  27 iterations

     Forces acting on atoms (cartesian axes, Ry/au):

     atom    1 type  1   force =    -0.00000000   -0.00000000   -0.00000000
     atom    2 type  1   force =     0.00000000    0.00000000    0.00000000
     atom    3 type  2   force =    -0.00000000   -0.00000000    0.00070858
     atom    4 type  2   force =     0.00000000   -0.00000000    0.00070858
     atom    5 type  2   force =     0.00000000   -0.00000000   -0.00070858
     atom    6 type  2   force =     0.00000000    0.00000000   -0.00070858

     Total force =     0.001417     Total SCF correction =     0.000010


     Computing stress (Cartesian axis) and pressure

          total   stress  (Ry/bohr**3)                   (kbar)     P=        0.41
   0.00000497  -0.00000000   0.00000000            0.73       -0.00        0.00
  -0.00000000   0.00000497  -0.00000000           -0.00        0.73       -0.00
   0.00000000  -0.00000000  -0.00000166            0.00       -0.00       -0.24


     number of scf cycles    =   8
     number of bfgs steps    =   7

     enthalpy old            =     -96.6588068198 Ry
     enthalpy new            =     -96.6588126037 Ry

     CASE: enthalpy_new < enthalpy_old

     new trust radius        =       0.0105304593 bohr
     new conv_thr            =            1.0E-10 Ry

     new unit-cell volume =    980.92104 a.u.^3 (   145.35750 Ang^3 )
     density =      5.73065 g/cm^3

CELL_PARAMETERS (angstrom)
   3.483279423  -0.000000000  -0.000000000
  -1.741639711   3.016608469  -0.000000000
  -0.000000000  -0.000000000  13.833439954

ATOMIC_POSITIONS (crystal)
Nb            0.0000000000        0.0000000000        0.2500000000
Nb            0.0000000000        0.0000000000        0.7500000000
Se            0.6666666667        0.3333333333        0.6280323505
Se            0.3333333333        0.6666666667        0.1280323505
Se            0.6666666667        0.3333333333        0.8719676495
Se            0.3333333333        0.6666666667        0.3719676495



     Writing output data file ./outdir/NbSe2.save/
     NEW-OLD atomic charge density approx. for the potential
     extrapolated charge   34.05231, renormalised to   34.00000

     total cpu time spent up to now is     1521.6 secs

     Self-consistent Calculation

     iteration #  1     ecut=   100.00 Ry     beta= 0.70
     Davidson diagonalization with overlap
     ethr =  1.00E-06,  avg # of iterations =  3.7

     total cpu time spent up to now is     1535.4 secs

     total energy              =     -96.65871054 Ry
     estimated scf accuracy    <       0.00017320 Ry

     iteration #  2     ecut=   100.00 Ry     beta= 0.70
     Davidson diagonalization with overlap
     ethr =  5.09E-07,  avg # of iterations =  3.0

     total cpu time spent up to now is     1547.0 secs

     total energy              =     -96.65882236 Ry
     estimated scf accuracy    <       0.00004399 Ry

     iteration #  3     ecut=   100.00 Ry     beta= 0.70
     Davidson diagonalization with overlap
     ethr =  1.29E-07,  avg # of iterations =  1.4

     total cpu time spent up to now is     1555.5 secs

     total energy              =     -96.65882043 Ry
     estimated scf accuracy    <       0.00002706 Ry

     iteration #  4     ecut=   100.00 Ry     beta= 0.70
     Davidson diagonalization with overlap
     ethr =  7.96E-08,  avg # of iterations =  1.2

     total cpu time spent up to now is     1564.1 secs

     total energy              =     -96.65882091 Ry
     estimated scf accuracy    <       0.00000978 Ry

     iteration #  5     ecut=   100.00 Ry     beta= 0.70
     Davidson diagonalization with overlap
     ethr =  2.88E-08,  avg # of iterations =  1.9

     total cpu time spent up to now is     1572.8 secs

     total energy              =     -96.65882003 Ry
     estimated scf accuracy    <       0.00000511 Ry

     iteration #  6     ecut=   100.00 Ry     beta= 0.70
     Davidson diagonalization with overlap
     ethr =  1.50E-08,  avg # of iterations =  3.1

     total cpu time spent up to now is     1583.8 secs

     total energy              =     -96.65882117 Ry
     estimated scf accuracy    <       0.00000014 Ry

     iteration #  7     ecut=   100.00 Ry     beta= 0.70
     Davidson diagonalization with overlap
     ethr =  4.16E-10,  avg # of iterations =  9.2

     total cpu time spent up to now is     1605.6 secs

     total energy              =     -96.65882146 Ry
     estimated scf accuracy    <       0.00000004 Ry

     iteration #  8     ecut=   100.00 Ry     beta= 0.70
     Davidson diagonalization with overlap
     c_bands:  1 eigenvalues not converged
     ethr =  1.14E-10,  avg # of iterations =  3.6

     total cpu time spent up to now is     1615.8 secs

     total energy              =     -96.65882149 Ry
     estimated scf accuracy    <       0.00000003 Ry

     iteration #  9     ecut=   100.00 Ry     beta= 0.70
     Davidson diagonalization with overlap
     ethr =  8.79E-11,  avg # of iterations =  5.6

     total cpu time spent up to now is     1629.7 secs

     total energy              =     -96.65882134 Ry
     estimated scf accuracy    <       0.00000032 Ry

     iteration # 10     ecut=   100.00 Ry     beta= 0.70
     Davidson diagonalization with overlap
     ethr =  8.79E-11,  avg # of iterations =  8.2

     total cpu time spent up to now is     1651.5 secs

     total energy              =     -96.65882254 Ry
     estimated scf accuracy    <       0.00000095 Ry

     iteration # 11     ecut=   100.00 Ry     beta= 0.70
     Davidson diagonalization with overlap
     ethr =  8.79E-11,  avg # of iterations =  9.6

     total cpu time spent up to now is     1676.8 secs

     total energy              =     -96.65882330 Ry
     estimated scf accuracy    <       0.00000889 Ry

     iteration # 12     ecut=   100.00 Ry     beta= 0.70
     Davidson diagonalization with overlap
     ethr =  8.79E-11,  avg # of iterations =  2.4

     total cpu time spent up to now is     1687.6 secs

     total energy              =     -96.65881920 Ry
     estimated scf accuracy    <       0.00001002 Ry

     iteration # 13     ecut=   100.00 Ry     beta= 0.70
     Davidson diagonalization with overlap
     ethr =  8.79E-11,  avg # of iterations = 13.0

     total cpu time spent up to now is     1722.5 secs

     total energy              =     -96.65882097 Ry
     estimated scf accuracy    <       0.00000161 Ry

     iteration # 14     ecut=   100.00 Ry     beta= 0.70
     Davidson diagonalization with overlap
     ethr =  8.79E-11,  avg # of iterations =  9.9

     total cpu time spent up to now is     1748.9 secs

     total energy              =     -96.65882165 Ry
     estimated scf accuracy    <       0.00000143 Ry

     iteration # 15     ecut=   100.00 Ry     beta= 0.70
     Davidson diagonalization with overlap
     ethr =  8.79E-11,  avg # of iterations =  2.0

     total cpu time spent up to now is     1759.0 secs

     total energy              =     -96.65882126 Ry
     estimated scf accuracy    <       0.00000104 Ry

     iteration # 16     ecut=   100.00 Ry     beta= 0.70
     Davidson diagonalization with overlap
     ethr =  8.79E-11,  avg # of iterations =  7.8

     total cpu time spent up to now is     1779.4 secs

     total energy              =     -96.65882147 Ry
     estimated scf accuracy    <       0.00000006 Ry

     iteration # 17     ecut=   100.00 Ry     beta= 0.70
     Davidson diagonalization with overlap
     ethr =  8.79E-11,  avg # of iterations =  2.0

     total cpu time spent up to now is     1789.5 secs

     total energy              =     -96.65882148 Ry
     estimated scf accuracy    <          3.5E-09 Ry

     iteration # 18     ecut=   100.00 Ry     beta= 0.70
     Davidson diagonalization with overlap
     ethr =  1.02E-11,  avg # of iterations =  3.5

     total cpu time spent up to now is     1800.1 secs

     total energy              =     -96.65882148 Ry
     estimated scf accuracy    <          3.6E-09 Ry

     iteration # 19     ecut=   100.00 Ry     beta= 0.70
     Davidson diagonalization with overlap
     ethr =  1.02E-11,  avg # of iterations =  1.0

     total cpu time spent up to now is     1808.5 secs

     total energy              =     -96.65882148 Ry
     estimated scf accuracy    <          2.6E-09 Ry

     iteration # 20     ecut=   100.00 Ry     beta= 0.70
     Davidson diagonalization with overlap
     ethr =  7.72E-12,  avg # of iterations =  1.1

     total cpu time spent up to now is     1816.9 secs

     total energy              =     -96.65882148 Ry
     estimated scf accuracy    <          1.6E-09 Ry

     iteration # 21     ecut=   100.00 Ry     beta= 0.70
     Davidson diagonalization with overlap
     ethr =  4.59E-12,  avg # of iterations =  2.5

     total cpu time spent up to now is     1825.9 secs

     total energy              =     -96.65882148 Ry
     estimated scf accuracy    <          7.9E-10 Ry

     iteration # 22     ecut=   100.00 Ry     beta= 0.70
     Davidson diagonalization with overlap
     ethr =  2.32E-12,  avg # of iterations =  4.2

     total cpu time spent up to now is     1836.3 secs

     total energy              =     -96.65882148 Ry
     estimated scf accuracy    <          1.8E-10 Ry

     iteration # 23     ecut=   100.00 Ry     beta= 0.70
     Davidson diagonalization with overlap
     ethr =  5.31E-13,  avg # of iterations =  5.4

     total cpu time spent up to now is     1848.5 secs

     total energy              =     -96.65882148 Ry
     estimated scf accuracy    <          1.1E-10 Ry

     iteration # 24     ecut=   100.00 Ry     beta= 0.70
     Davidson diagonalization with overlap
     ethr =  3.14E-13,  avg # of iterations =  1.5

     total cpu time spent up to now is     1857.1 secs

     End of self-consistent calculation

     Number of k-points >= 100: set verbosity='high' to print the bands.

     the Fermi energy is     6.1247 ev

!    total energy              =     -96.65882148 Ry
     estimated scf accuracy    <          9.1E-11 Ry
     smearing contrib. (-TS)   =      -0.01918127 Ry
     internal energy E=F+TS    =     -96.63964021 Ry

     The total energy is F=E-TS. E is the sum of the following terms:
     one-electron contribution =       3.25320184 Ry
     hartree contribution      =      14.67834892 Ry
     xc contribution           =     -22.66008443 Ry
     ewald contribution        =     -91.91110654 Ry

     convergence has been achieved in  24 iterations

     Forces acting on atoms (cartesian axes, Ry/au):

     atom    1 type  1   force =    -0.00000000   -0.00000000   -0.00000000
     atom    2 type  1   force =    -0.00000000   -0.00000000    0.00000000
     atom    3 type  2   force =    -0.00000000   -0.00000000    0.00084133
     atom    4 type  2   force =     0.00000000    0.00000000    0.00084133
     atom    5 type  2   force =    -0.00000000   -0.00000000   -0.00084133
     atom    6 type  2   force =    -0.00000000   -0.00000000   -0.00084133

     Total force =     0.001683     Total SCF correction =     0.000024


     Computing stress (Cartesian axis) and pressure

          total   stress  (Ry/bohr**3)                   (kbar)     P=        0.28
   0.00000497  -0.00000000   0.00000000            0.73       -0.00        0.00
  -0.00000000   0.00000497   0.00000000           -0.00        0.73        0.00
   0.00000000  -0.00000000  -0.00000418            0.00       -0.00       -0.61


     number of scf cycles    =   9
     number of bfgs steps    =   8

     enthalpy old            =     -96.6588126037 Ry
     enthalpy new            =     -96.6588214757 Ry

     CASE: enthalpy_new < enthalpy_old

     new trust radius        =       0.0157813062 bohr
     new conv_thr            =            1.0E-10 Ry

     new unit-cell volume =    983.31464 a.u.^3 (   145.71220 Ang^3 )
     density =      5.71670 g/cm^3

CELL_PARAMETERS (angstrom)
   3.483141769  -0.000000000  -0.000000000
  -1.741570884   3.016489256  -0.000000000
  -0.000000000  -0.000000000  13.868291826

ATOMIC_POSITIONS (crystal)
Nb           -0.0000000000        0.0000000000        0.2500000000
Nb            0.0000000000       -0.0000000000        0.7500000000
Se            0.6666666667        0.3333333333        0.6283162765
Se            0.3333333333        0.6666666667        0.1283162765
Se            0.6666666667        0.3333333333        0.8716837235
Se            0.3333333333        0.6666666667        0.3716837235



     Writing output data file ./outdir/NbSe2.save/
     NEW-OLD atomic charge density approx. for the potential
     extrapolated charge   34.08274, renormalised to   34.00000

     total cpu time spent up to now is     1859.0 secs

     Self-consistent Calculation

     iteration #  1     ecut=   100.00 Ry     beta= 0.70
     Davidson diagonalization with overlap
     ethr =  1.00E-06,  avg # of iterations =  4.7

[...]
     c_bands:  1 eigenvalues not converged
     c_bands:  1 eigenvalues not converged
     c_bands:  1 eigenvalues not converged
     c_bands:  1 eigenvalues not converged
     c_bands:  1 eigenvalues not converged
     c_bands:  2 eigenvalues not converged
     c_bands:  2 eigenvalues not converged
     c_bands:  3 eigenvalues not converged
     c_bands:  2 eigenvalues not converged
     c_bands:  2 eigenvalues not converged
     c_bands:  1 eigenvalues not converged
     c_bands:  2 eigenvalues not converged
     c_bands:  2 eigenvalues not converged
     c_bands:  2 eigenvalues not converged
     c_bands:  1 eigenvalues not converged
     c_bands:  1 eigenvalues not converged
     c_bands:  1 eigenvalues not converged
     c_bands:  1 eigenvalues not converged
     c_bands:  1 eigenvalues not converged
     c_bands:  2 eigenvalues not converged
     c_bands:  1 eigenvalues not converged
     c_bands:  1 eigenvalues not converged
     c_bands:  1 eigenvalues not converged
     c_bands:  1 eigenvalues not converged
     c_bands:  1 eigenvalues not converged
     c_bands:  1 eigenvalues not converged
     c_bands:  1 eigenvalues not converged
     c_bands:  1 eigenvalues not converged
     c_bands:  1 eigenvalues not converged
     c_bands:  3 eigenvalues not converged
     c_bands:  1 eigenvalues not converged
     c_bands:  1 eigenvalues not converged
     c_bands:  1 eigenvalues not converged
     c_bands:  1 eigenvalues not converged
     c_bands:  2 eigenvalues not converged
     c_bands:  1 eigenvalues not converged
     c_bands:  1 eigenvalues not converged
     c_bands:  1 eigenvalues not converged
     c_bands:  2 eigenvalues not converged
     c_bands:  1 eigenvalues not converged
     c_bands:  2 eigenvalues not converged
     c_bands:  1 eigenvalues not converged
     c_bands:  1 eigenvalues not converged
     c_bands:  1 eigenvalues not converged
     c_bands:  1 eigenvalues not converged
     c_bands:  1 eigenvalues not converged
     c_bands:  1 eigenvalues not converged
     c_bands:  1 eigenvalues not converged
     c_bands:  1 eigenvalues not converged
     c_bands:  1 eigenvalues not converged
     c_bands:  1 eigenvalues not converged
     c_bands:  1 eigenvalues not converged
     c_bands:  1 eigenvalues not converged
     c_bands:  1 eigenvalues not converged
     c_bands:  1 eigenvalues not converged
     c_bands:  1 eigenvalues not converged
     c_bands:  1 eigenvalues not converged
     c_bands:  1 eigenvalues not converged
     c_bands:  1 eigenvalues not converged
     c_bands:  1 eigenvalues not converged
     c_bands:  1 eigenvalues not converged
     c_bands:  1 eigenvalues not converged
     c_bands:  1 eigenvalues not converged
     c_bands:  1 eigenvalues not converged
     ethr =  1.00E-06,  avg # of iterations = 19.6

     negative rho (up, down):  6.733E-04 0.000E+00

     total cpu time spent up to now is     3859.4 secs

     total energy              =     -96.39404267 Ry
     estimated scf accuracy    <       2.04287008 Ry

     iteration #  2     ecut=   100.00 Ry     beta= 0.70
     Davidson diagonalization with overlap
     ethr =  6.01E-03,  avg # of iterations =  2.0

     total cpu time spent up to now is     3868.7 secs

     total energy              =     -96.64859517 Ry
     estimated scf accuracy    <       0.10794726 Ry

     iteration #  3     ecut=   100.00 Ry     beta= 0.70
     Davidson diagonalization with overlap
     ethr =  3.17E-04,  avg # of iterations =  2.2

     total cpu time spent up to now is     3878.8 secs

     total energy              =     -96.64137727 Ry
     estimated scf accuracy    <       0.04278382 Ry

     iteration #  4     ecut=   100.00 Ry     beta= 0.70
     Davidson diagonalization with overlap
     ethr =  1.26E-04,  avg # of iterations =  3.4

     total cpu time spent up to now is     3891.1 secs

     total energy              =     -96.65559570 Ry
     estimated scf accuracy    <       0.01468882 Ry

     iteration #  5     ecut=   100.00 Ry     beta= 0.70
     Davidson diagonalization with overlap
     ethr =  4.32E-05,  avg # of iterations =  3.3

     total cpu time spent up to now is     3900.9 secs

     total energy              =     -96.65760776 Ry
     estimated scf accuracy    <       0.00104877 Ry

     iteration #  6     ecut=   100.00 Ry     beta= 0.70
     Davidson diagonalization with overlap
     c_bands:  1 eigenvalues not converged
     c_bands:  1 eigenvalues not converged
     c_bands:  1 eigenvalues not converged
     c_bands:  1 eigenvalues not converged
     c_bands:  1 eigenvalues not converged
     c_bands:  2 eigenvalues not converged
     c_bands:  1 eigenvalues not converged
     c_bands:  1 eigenvalues not converged
     c_bands:  1 eigenvalues not converged
     c_bands:  1 eigenvalues not converged
     c_bands:  1 eigenvalues not converged
     c_bands:  1 eigenvalues not converged
     c_bands:  1 eigenvalues not converged
     c_bands:  1 eigenvalues not converged
     c_bands:  1 eigenvalues not converged
     c_bands:  1 eigenvalues not converged
     c_bands:  1 eigenvalues not converged
     c_bands:  1 eigenvalues not converged
     c_bands:  1 eigenvalues not converged
     c_bands:  1 eigenvalues not converged
     c_bands:  1 eigenvalues not converged
     c_bands:  1 eigenvalues not converged
     c_bands:  1 eigenvalues not converged
     c_bands:  1 eigenvalues not converged
     c_bands:  2 eigenvalues not converged
     c_bands:  2 eigenvalues not converged
     c_bands:  2 eigenvalues not converged
     c_bands:  1 eigenvalues not converged
     c_bands:  1 eigenvalues not converged
     c_bands:  1 eigenvalues not converged
     c_bands:  2 eigenvalues not converged
     c_bands:  1 eigenvalues not converged
     c_bands:  1 eigenvalues not converged
     c_bands:  1 eigenvalues not converged
     c_bands:  1 eigenvalues not converged
     c_bands:  1 eigenvalues not converged
     c_bands:  1 eigenvalues not converged
     c_bands:  1 eigenvalues not converged
     c_bands:  2 eigenvalues not converged
     c_bands:  2 eigenvalues not converged
     c_bands:  1 eigenvalues not converged
     c_bands:  2 eigenvalues not converged
     c_bands:  1 eigenvalues not converged
     c_bands:  1 eigenvalues not converged
     c_bands:  1 eigenvalues not converged
     c_bands:  1 eigenvalues not converged
     c_bands:  1 eigenvalues not converged
     c_bands:  1 eigenvalues not converged
     c_bands:  1 eigenvalues not converged
     c_bands:  2 eigenvalues not converged
     c_bands:  1 eigenvalues not converged
     c_bands:  1 eigenvalues not converged
     c_bands:  1 eigenvalues not converged
     c_bands:  1 eigenvalues not converged
     c_bands:  1 eigenvalues not converged
     c_bands:  1 eigenvalues not converged
     c_bands:  1 eigenvalues not converged
     c_bands:  1 eigenvalues not converged
     c_bands:  2 eigenvalues not converged
     c_bands:  2 eigenvalues not converged
     c_bands:  2 eigenvalues not converged
     c_bands:  1 eigenvalues not converged
     c_bands:  1 eigenvalues not converged
     c_bands:  1 eigenvalues not converged
     c_bands:  1 eigenvalues not converged
     c_bands:  1 eigenvalues not converged
     c_bands:  1 eigenvalues not converged
     c_bands:  1 eigenvalues not converged
     c_bands:  1 eigenvalues not converged
     c_bands:  1 eigenvalues not converged
     c_bands:  1 eigenvalues not converged
     c_bands:  1 eigenvalues not converged
     c_bands:  1 eigenvalues not converged
     c_bands:  1 eigenvalues not converged
     c_bands:  1 eigenvalues not converged
     c_bands:  1 eigenvalues not converged
     c_bands:  1 eigenvalues not converged
     c_bands:  1 eigenvalues not converged
     c_bands:  1 eigenvalues not converged
     c_bands:  1 eigenvalues not converged
     c_bands:  1 eigenvalues not converged
     c_bands:  1 eigenvalues not converged
     c_bands:  1 eigenvalues not converged
     c_bands:  1 eigenvalues not converged
     c_bands:  1 eigenvalues not converged
     c_bands:  1 eigenvalues not converged
     c_bands:  1 eigenvalues not converged
     c_bands:  1 eigenvalues not converged
     c_bands:  1 eigenvalues not converged
     c_bands:  1 eigenvalues not converged
     c_bands:  1 eigenvalues not converged
     c_bands:  1 eigenvalues not converged
     c_bands:  1 eigenvalues not converged
     c_bands:  1 eigenvalues not converged
     c_bands:  1 eigenvalues not converged
     c_bands:  1 eigenvalues not converged
     c_bands:  1 eigenvalues not converged
     c_bands:  1 eigenvalues not converged
     c_bands:  1 eigenvalues not converged
     c_bands:  1 eigenvalues not converged
     c_bands:  1 eigenvalues not converged
     c_bands:  1 eigenvalues not converged
     c_bands:  1 eigenvalues not converged
     c_bands:  1 eigenvalues not converged
     c_bands:  1 eigenvalues not converged
     c_bands:  1 eigenvalues not converged
     c_bands:  1 eigenvalues not converged
     c_bands:  1 eigenvalues not converged
     c_bands:  1 eigenvalues not converged
     c_bands:  1 eigenvalues not converged
     c_bands:  1 eigenvalues not converged
     c_bands:  1 eigenvalues not converged
     c_bands:  1 eigenvalues not converged
     c_bands:  1 eigenvalues not converged
     c_bands:  1 eigenvalues not converged
     ethr =  3.08E-06,  avg # of iterations = 13.0

     total cpu time spent up to now is     3924.0 secs

     total energy              =     -96.65867596 Ry
     estimated scf accuracy    <       0.00164914 Ry

     iteration #  7     ecut=   100.00 Ry     beta= 0.70
     Davidson diagonalization with overlap
     c_bands:  1 eigenvalues not converged
     c_bands:  1 eigenvalues not converged
     c_bands:  1 eigenvalues not converged
     ethr =  3.08E-06,  avg # of iterations =  3.2

     total cpu time spent up to now is     3933.7 secs

     total energy              =     -96.65877901 Ry
     estimated scf accuracy    <       0.00011612 Ry

     iteration #  8     ecut=   100.00 Ry     beta= 0.70
     Davidson diagonalization with overlap
     c_bands:  1 eigenvalues not converged
     c_bands:  1 eigenvalues not converged
     c_bands:  1 eigenvalues not converged
     ethr =  3.42E-07,  avg # of iterations =  7.4

     total cpu time spent up to now is     3952.0 secs

     total energy              =     -96.65888619 Ry
     estimated scf accuracy    <       0.00056961 Ry

     iteration #  9     ecut=   100.00 Ry     beta= 0.70
     Davidson diagonalization with overlap
     c_bands:  1 eigenvalues not converged
     ethr =  3.42E-07,  avg # of iterations =  1.9

     total cpu time spent up to now is     3960.9 secs

     total energy              =     -96.65884904 Ry
     estimated scf accuracy    <       0.00021512 Ry

     iteration # 10     ecut=   100.00 Ry     beta= 0.70
     Davidson diagonalization with overlap
     c_bands:  1 eigenvalues not converged
     ethr =  3.42E-07,  avg # of iterations =  4.1

     total cpu time spent up to now is     3971.6 secs

     total energy              =     -96.65887535 Ry
     estimated scf accuracy    <       0.00000798 Ry

     iteration # 11     ecut=   100.00 Ry     beta= 0.70
     Davidson diagonalization with overlap
     ethr =  2.35E-08,  avg # of iterations =  7.0

     total cpu time spent up to now is     3988.8 secs

     total energy              =     -96.65888518 Ry
     estimated scf accuracy    <       0.00000283 Ry

     iteration # 12     ecut=   100.00 Ry     beta= 0.70
     Davidson diagonalization with overlap
     ethr =  8.33E-09,  avg # of iterations =  1.8

     total cpu time spent up to now is     3997.7 secs

     total energy              =     -96.65888566 Ry
     estimated scf accuracy    <       0.00000049 Ry

     iteration # 13     ecut=   100.00 Ry     beta= 0.70
     Davidson diagonalization with overlap
     c_bands:  1 eigenvalues not converged
     ethr =  1.44E-09,  avg # of iterations =  5.6

     total cpu time spent up to now is     4009.7 secs

     total energy              =     -96.65888575 Ry
     estimated scf accuracy    <       0.00000202 Ry

     iteration # 14     ecut=   100.00 Ry     beta= 0.70
     Davidson diagonalization with overlap
     c_bands:  1 eigenvalues not converged
     ethr =  1.44E-09,  avg # of iterations =  1.0

     total cpu time spent up to now is     4018.0 secs

     total energy              =     -96.65888575 Ry
     estimated scf accuracy    <       0.00000175 Ry

     iteration # 15     ecut=   100.00 Ry     beta= 0.70
     Davidson diagonalization with overlap
     ethr =  1.44E-09,  avg # of iterations =  1.0

     total cpu time spent up to now is     4026.4 secs

     total energy              =     -96.65888547 Ry
     estimated scf accuracy    <       0.00000170 Ry

     iteration # 16     ecut=   100.00 Ry     beta= 0.70
     Davidson diagonalization with overlap
     ethr =  1.44E-09,  avg # of iterations =  2.0

     total cpu time spent up to now is     4035.4 secs

     total energy              =     -96.65888549 Ry
     estimated scf accuracy    <       0.00000055 Ry

     iteration # 17     ecut=   100.00 Ry     beta= 0.70
     Davidson diagonalization with overlap
     ethr =  1.44E-09,  avg # of iterations =  1.0

     total cpu time spent up to now is     4043.8 secs

     total energy              =     -96.65888546 Ry
     estimated scf accuracy    <       0.00000039 Ry

     iteration # 18     ecut=   100.00 Ry     beta= 0.70
     Davidson diagonalization with overlap
     ethr =  1.14E-09,  avg # of iterations =  1.1

     total cpu time spent up to now is     4052.2 secs

     total energy              =     -96.65888543 Ry
     estimated scf accuracy    <       0.00000019 Ry

     iteration # 19     ecut=   100.00 Ry     beta= 0.70
     Davidson diagonalization with overlap
     c_bands:  1 eigenvalues not converged
     ethr =  5.53E-10,  avg # of iterations =  5.1

     total cpu time spent up to now is     4063.9 secs

     total energy              =     -96.65888549 Ry
     estimated scf accuracy    <          3.1E-09 Ry

     iteration # 20     ecut=   100.00 Ry     beta= 0.70
     Davidson diagonalization with overlap
     c_bands:  1 eigenvalues not converged
     ethr =  9.02E-12,  avg # of iterations = 11.6

     total cpu time spent up to now is     4092.8 secs

     total energy              =     -96.65888551 Ry
     estimated scf accuracy    <       0.00000010 Ry

     iteration # 21     ecut=   100.00 Ry     beta= 0.70
     Davidson diagonalization with overlap
     ethr =  9.02E-12,  avg # of iterations =  3.1

     total cpu time spent up to now is     4103.8 secs

     total energy              =     -96.65888550 Ry
     estimated scf accuracy    <       0.00000005 Ry

     iteration # 22     ecut=   100.00 Ry     beta= 0.70
     Davidson diagonalization with overlap
     ethr =  9.02E-12,  avg # of iterations =  6.2

     total cpu time spent up to now is     4119.4 secs

     total energy              =     -96.65888550 Ry
     estimated scf accuracy    <          6.1E-09 Ry

     iteration # 23     ecut=   100.00 Ry     beta= 0.70
     Davidson diagonalization with overlap
     c_bands:  1 eigenvalues not converged
     ethr =  9.02E-12,  avg # of iterations =  6.2

     total cpu time spent up to now is     4134.5 secs

     total energy              =     -96.65888550 Ry
     estimated scf accuracy    <          6.8E-09 Ry

     iteration # 24     ecut=   100.00 Ry     beta= 0.70
     Davidson diagonalization with overlap
     ethr =  9.02E-12,  avg # of iterations =  2.3

     total cpu time spent up to now is     4143.9 secs

     total energy              =     -96.65888550 Ry
     estimated scf accuracy    <          3.8E-10 Ry

     iteration # 25     ecut=   100.00 Ry     beta= 0.70
     Davidson diagonalization with overlap
     c_bands:  1 eigenvalues not converged
     ethr =  1.11E-12,  avg # of iterations =  5.5

     total cpu time spent up to now is     4156.9 secs

     End of self-consistent calculation

     Number of k-points >= 100: set verbosity='high' to print the bands.

     the Fermi energy is     5.9148 ev

!    total energy              =     -96.65888550 Ry
     estimated scf accuracy    <          1.5E-11 Ry
     smearing contrib. (-TS)   =      -0.01916651 Ry
     internal energy E=F+TS    =     -96.63971899 Ry

     The total energy is F=E-TS. E is the sum of the following terms:
     one-electron contribution =      -0.06741928 Ry
     hartree contribution      =      16.07969540 Ry
     xc contribution           =     -22.65613615 Ry
     ewald contribution        =     -89.99585896 Ry

     convergence has been achieved in  25 iterations

     Forces acting on atoms (cartesian axes, Ry/au):

     atom    1 type  1   force =     0.00000000    0.00000000   -0.00000000
     atom    2 type  1   force =    -0.00000000   -0.00000000   -0.00000000
     atom    3 type  2   force =    -0.00000000   -0.00000000    0.00005429
     atom    4 type  2   force =    -0.00000000   -0.00000000    0.00005429
     atom    5 type  2   force =     0.00000000   -0.00000000   -0.00005429
     atom    6 type  2   force =    -0.00000000   -0.00000000   -0.00005429

     Total force =     0.000109     Total SCF correction =     0.000008


     Computing stress (Cartesian axis) and pressure

          total   stress  (Ry/bohr**3)                   (kbar)     P=       -0.06
  -0.00000014  -0.00000000  -0.00000000           -0.02       -0.00       -0.00
  -0.00000000  -0.00000014   0.00000000           -0.00       -0.02        0.00
  -0.00000000  -0.00000000  -0.00000103           -0.00       -0.00       -0.15


     Writing output data file ./outdir/NbSe2.save/
 
     init_run     :     32.73s CPU     34.67s WALL (       2 calls)
     electrons    :   4017.55s CPU   4093.50s WALL (      16 calls)
     update_pot   :      0.47s CPU      0.47s WALL (      14 calls)
     forces       :      7.63s CPU      7.84s WALL (      16 calls)
     stress       :     20.78s CPU     20.99s WALL (      16 calls)

     Called by init_run:
     wfcinit      :     32.53s CPU     34.44s WALL (       2 calls)
     potinit      :      0.03s CPU      0.03s WALL (       2 calls)
     hinit0       :      0.11s CPU      0.13s WALL (       2 calls)

     Called by electrons:
     c_bands      :   3541.74s CPU   3608.54s WALL (     328 calls)
     sum_band     :    472.23s CPU    481.12s WALL (     328 calls)
     v_of_rho     :      1.22s CPU      1.24s WALL (     337 calls)
     mix_rho      :      2.05s CPU      2.09s WALL (     328 calls)

     Called by c_bands:
     init_us_2    :     23.14s CPU     23.97s WALL (  294630 calls)
     cegterg      :   3436.68s CPU   3499.35s WALL (  140056 calls)

     Called by *egterg:
     cdiaghg      :    254.39s CPU    258.96s WALL (  663096 calls)
     h_psi        :   2998.76s CPU   3053.69s WALL (  672917 calls)
     g_psi        :      4.68s CPU      4.80s WALL (  532007 calls)

     Called by h_psi:
     h_psi:calbec :    113.87s CPU    116.90s WALL (  672917 calls)
     vloc_psi     :   2813.93s CPU   2864.20s WALL (  672917 calls)
     add_vuspsi   :     65.56s CPU     67.42s WALL (  672917 calls)

     General routines
     calbec       :    121.41s CPU    124.99s WALL (  707077 calls)
     fft          :      0.96s CPU      0.99s WALL (    3503 calls)
     ffts         :      1.42s CPU      1.44s WALL (    6185 calls)
     fftw         :   3175.43s CPU   3233.41s WALL (21182818 calls)
 
     Parallel routines
     fft_scatt_xy :     77.90s CPU     78.68s WALL (21192506 calls)
     fft_scatt_yz :   2116.73s CPU   2158.68s WALL (21192506 calls)
 
     PWSCF        :      1h 8m CPU      1h 9m WALL

 
   This run was terminated on:   1:11:48  25Oct2021            

=------------------------------------------------------------------------------=
   JOB DONE.
=------------------------------------------------------------------------------=
