
     Program PWSCF v.7.0 starts on 18Jun2022 at  8:48:38 

     This program is part of the open-source Quantum ESPRESSO suite
     for quantum simulation of materials; please cite
         "P. Giannozzi et al., J. Phys.:Condens. Matter 21 395502 (2009);
         "P. Giannozzi et al., J. Phys.:Condens. Matter 29 465901 (2017);
         "P. Giannozzi et al., J. Chem. Phys. 152 154105 (2020);
          URL http://www.quantum-espresso.org", 
     in publications or presentations arising from this work. More details at
     http://www.quantum-espresso.org/quote

     Parallel version (MPI), running on    64 processors

     MPI processes distributed on     1 nodes
     466091 MiB available memory on the printing compute node when the environment starts
 
     Reading input from ./inputs/0.009-scf.in
Warning: card &CELL ignored
Warning: card / ignored

     Current dimensions of program PWSCF are:
     Max number of different atomic species (ntypx) = 10
     Max number of k-points (npk) =  40000
     Max angular momentum in pseudopotentials (lmaxx) =  4
     file Nb.pbe-spn-rrkjus_psl.1.0.0.UPF: wavefunction(s)  4S 4P renormalized
     file Se.pbe-mt_fhi.UPF: wavefunction(s)  4f renormalized
     Message from routine setup:
     using ibrav=0 with symmetry is DISCOURAGED, use correct ibrav instead
 
     R & G space division:  proc/nbgrp/npool/nimage =      64
     Subspace diagonalization in iterative solution of the eigenvalue problem:
     a serial algorithm will be used

 
     Parallelization info
     --------------------
     sticks:   dense  smooth     PW     G-vecs:    dense   smooth      PW
     Min          37      37     10                 5835     5835     828
     Max          39      39     11                 5848     5848     847
     Sum        2395    2395    649               373801   373801   53367
 
     Using Slab Decomposition
 


     bravais-lattice index     =            0
     lattice parameter (alat)  =       6.5782  a.u.
     unit-cell volume          =     978.2218 (a.u.)^3
     number of atoms/cell      =            3
     number of atomic types    =            2
     number of electrons       =        25.00
     number of Kohn-Sham states=           17
     kinetic-energy cutoff     =     200.0000  Ry
     charge density cutoff     =     800.0000  Ry
     scf convergence threshold =      1.0E-12
     mixing beta               =       0.7000
     number of iterations used =            8  local-TF  mixing
     Exchange-correlation= PBE
                           (   1   4   3   4   0   0   0)

     celldm(1)=   6.578180  celldm(2)=   0.000000  celldm(3)=   0.000000
     celldm(4)=   0.000000  celldm(5)=   0.000000  celldm(6)=   0.000000

     crystal axes: (cart. coord. in units of alat)
               a(1) = (   1.000000   0.000000   0.000000 )  
               a(2) = (  -0.500000   0.866025   0.000000 )  
               a(3) = (   0.000000   0.000000   3.968162 )  

     reciprocal axes: (cart. coord. in units 2 pi/alat)
               b(1) = (  1.000000  0.577350  0.000000 )  
               b(2) = (  0.000000  1.154701  0.000000 )  
               b(3) = (  0.000000  0.000000  0.252006 )  


     PseudoPot. # 1 for Nb read from file:
     ./PP/Nb.pbe-spn-rrkjus_psl.1.0.0.UPF
     MD5 check sum: 6ee677a9f002bd3e3657f443f129faad
     Pseudo is Ultrasoft + core correction, Zval = 13.0
     Generated using &quot;atomic&quot; code by A. Dal Corso  v.6.2.2
     Using radial grid of 1227 points,  6 beta functions with: 
                l(1) =   0
                l(2) =   0
                l(3) =   1
                l(4) =   1
                l(5) =   2
                l(6) =   2
     Q(r) pseudized with 0 coefficients 


     PseudoPot. # 2 for Se read from file:
     ./PP/Se.pbe-mt_fhi.UPF
     MD5 check sum: 761aa2365a2a775fd78ad90d13f3567a
     Pseudo is Norm-conserving, Zval =  6.0
     Generated using FHI98PP, converted with fhi2upf.x v.5.0.2
     Using radial grid of  533 points,  3 beta functions with: 
                l(1) =   0
                l(2) =   1
                l(3) =   3

     atomic species   valence    mass     pseudopotential
        Nb            13.00    92.90000     Nb( 1.00)
        Se             6.00    78.96000     Se( 1.00)

     12 Sym. Ops. (no inversion) found



   Cartesian axes

     site n.     atom                  positions (alat units)
         1           Nb  tau(   1) = (   0.0000000   0.0000000   1.9840810  )
         2           Se  tau(   2) = (  -0.0000000   0.5773503   1.5013474  )
         3           Se  tau(   3) = (  -0.0000000   0.5773503   2.4668145  )

     number of k points=    91  Fermi-Dirac smearing, width (Ry)=  0.0090
                       cart. coord. in units 2pi/alat
        k(    1) = (   0.0000000   0.0000000   0.0000000), wk =   0.0022222
        k(    2) = (   0.0000000   0.0384900   0.0000000), wk =   0.0133333
        k(    3) = (   0.0000000   0.0769800   0.0000000), wk =   0.0133333
        k(    4) = (   0.0000000   0.1154701   0.0000000), wk =   0.0133333
        k(    5) = (   0.0000000   0.1539601   0.0000000), wk =   0.0133333
        k(    6) = (   0.0000000   0.1924501   0.0000000), wk =   0.0133333
        k(    7) = (   0.0000000   0.2309401   0.0000000), wk =   0.0133333
        k(    8) = (   0.0000000   0.2694301   0.0000000), wk =   0.0133333
        k(    9) = (   0.0000000   0.3079201   0.0000000), wk =   0.0133333
        k(   10) = (   0.0000000   0.3464102   0.0000000), wk =   0.0133333
        k(   11) = (   0.0000000   0.3849002   0.0000000), wk =   0.0133333
        k(   12) = (   0.0000000   0.4233902   0.0000000), wk =   0.0133333
        k(   13) = (   0.0000000   0.4618802   0.0000000), wk =   0.0133333
        k(   14) = (   0.0000000   0.5003702   0.0000000), wk =   0.0133333
        k(   15) = (   0.0000000   0.5388603   0.0000000), wk =   0.0133333
        k(   16) = (   0.0000000  -0.5773503   0.0000000), wk =   0.0066667
        k(   17) = (   0.0333333   0.0577350   0.0000000), wk =   0.0133333
        k(   18) = (   0.0333333   0.0962250   0.0000000), wk =   0.0266667
        k(   19) = (   0.0333333   0.1347151   0.0000000), wk =   0.0266667
        k(   20) = (   0.0333333   0.1732051   0.0000000), wk =   0.0266667
        k(   21) = (   0.0333333   0.2116951   0.0000000), wk =   0.0266667
        k(   22) = (   0.0333333   0.2501851   0.0000000), wk =   0.0266667
        k(   23) = (   0.0333333   0.2886751   0.0000000), wk =   0.0266667
        k(   24) = (   0.0333333   0.3271652   0.0000000), wk =   0.0266667
        k(   25) = (   0.0333333   0.3656552   0.0000000), wk =   0.0266667
        k(   26) = (   0.0333333   0.4041452   0.0000000), wk =   0.0266667
        k(   27) = (   0.0333333   0.4426352   0.0000000), wk =   0.0266667
        k(   28) = (   0.0333333   0.4811252   0.0000000), wk =   0.0266667
        k(   29) = (   0.0333333   0.5196152   0.0000000), wk =   0.0266667
        k(   30) = (   0.0333333   0.5581053   0.0000000), wk =   0.0266667
        k(   31) = (   0.0666667   0.1154701   0.0000000), wk =   0.0133333
        k(   32) = (   0.0666667   0.1539601   0.0000000), wk =   0.0266667
        k(   33) = (   0.0666667   0.1924501   0.0000000), wk =   0.0266667
        k(   34) = (   0.0666667   0.2309401   0.0000000), wk =   0.0266667
        k(   35) = (   0.0666667   0.2694301   0.0000000), wk =   0.0266667
        k(   36) = (   0.0666667   0.3079201   0.0000000), wk =   0.0266667
        k(   37) = (   0.0666667   0.3464102   0.0000000), wk =   0.0266667
        k(   38) = (   0.0666667   0.3849002   0.0000000), wk =   0.0266667
        k(   39) = (   0.0666667   0.4233902   0.0000000), wk =   0.0266667
        k(   40) = (   0.0666667   0.4618802   0.0000000), wk =   0.0266667
        k(   41) = (   0.0666667   0.5003702   0.0000000), wk =   0.0266667
        k(   42) = (   0.0666667   0.5388603   0.0000000), wk =   0.0266667
        k(   43) = (   0.0666667   0.5773503   0.0000000), wk =   0.0133333
        k(   44) = (   0.1000000   0.1732051   0.0000000), wk =   0.0133333
        k(   45) = (   0.1000000   0.2116951   0.0000000), wk =   0.0266667
        k(   46) = (   0.1000000   0.2501851   0.0000000), wk =   0.0266667
        k(   47) = (   0.1000000   0.2886751   0.0000000), wk =   0.0266667
        k(   48) = (   0.1000000   0.3271652   0.0000000), wk =   0.0266667
        k(   49) = (   0.1000000   0.3656552   0.0000000), wk =   0.0266667
        k(   50) = (   0.1000000   0.4041452   0.0000000), wk =   0.0266667
        k(   51) = (   0.1000000   0.4426352   0.0000000), wk =   0.0266667
        k(   52) = (   0.1000000   0.4811252   0.0000000), wk =   0.0266667
        k(   53) = (   0.1000000   0.5196152   0.0000000), wk =   0.0266667
        k(   54) = (   0.1000000   0.5581053   0.0000000), wk =   0.0266667
        k(   55) = (   0.1333333   0.2309401   0.0000000), wk =   0.0133333
        k(   56) = (   0.1333333   0.2694301   0.0000000), wk =   0.0266667
        k(   57) = (   0.1333333   0.3079201   0.0000000), wk =   0.0266667
        k(   58) = (   0.1333333   0.3464102   0.0000000), wk =   0.0266667
        k(   59) = (   0.1333333   0.3849002   0.0000000), wk =   0.0266667
        k(   60) = (   0.1333333   0.4233902   0.0000000), wk =   0.0266667
        k(   61) = (   0.1333333   0.4618802   0.0000000), wk =   0.0266667
        k(   62) = (   0.1333333   0.5003702   0.0000000), wk =   0.0266667
        k(   63) = (   0.1333333   0.5388603   0.0000000), wk =   0.0266667
        k(   64) = (   0.1333333   0.5773503   0.0000000), wk =   0.0133333
        k(   65) = (   0.1666667   0.2886751   0.0000000), wk =   0.0133333
        k(   66) = (   0.1666667   0.3271652   0.0000000), wk =   0.0266667
        k(   67) = (   0.1666667   0.3656552   0.0000000), wk =   0.0266667
        k(   68) = (   0.1666667   0.4041452   0.0000000), wk =   0.0266667
        k(   69) = (   0.1666667   0.4426352   0.0000000), wk =   0.0266667
        k(   70) = (   0.1666667   0.4811252   0.0000000), wk =   0.0266667
        k(   71) = (   0.1666667   0.5196152   0.0000000), wk =   0.0266667
        k(   72) = (   0.1666667   0.5581053   0.0000000), wk =   0.0266667
        k(   73) = (   0.2000000   0.3464102   0.0000000), wk =   0.0133333
        k(   74) = (   0.2000000   0.3849002   0.0000000), wk =   0.0266667
        k(   75) = (   0.2000000   0.4233902   0.0000000), wk =   0.0266667
        k(   76) = (   0.2000000   0.4618802   0.0000000), wk =   0.0266667
        k(   77) = (   0.2000000   0.5003702   0.0000000), wk =   0.0266667
        k(   78) = (   0.2000000   0.5388603   0.0000000), wk =   0.0266667
        k(   79) = (   0.2000000   0.5773503   0.0000000), wk =   0.0133333
        k(   80) = (   0.2333333   0.4041452   0.0000000), wk =   0.0133333
        k(   81) = (   0.2333333   0.4426352   0.0000000), wk =   0.0266667
        k(   82) = (   0.2333333   0.4811252   0.0000000), wk =   0.0266667
        k(   83) = (   0.2333333   0.5196152   0.0000000), wk =   0.0266667
        k(   84) = (   0.2333333   0.5581053   0.0000000), wk =   0.0266667
        k(   85) = (   0.2666667   0.4618802   0.0000000), wk =   0.0133333
        k(   86) = (   0.2666667   0.5003702   0.0000000), wk =   0.0266667
        k(   87) = (   0.2666667   0.5388603   0.0000000), wk =   0.0266667
        k(   88) = (   0.2666667   0.5773503   0.0000000), wk =   0.0133333
        k(   89) = (   0.3000000   0.5196152   0.0000000), wk =   0.0133333
        k(   90) = (   0.3000000   0.5581053   0.0000000), wk =   0.0266667
        k(   91) = (   0.3333333   0.5773503   0.0000000), wk =   0.0044444

     Dense  grid:   373801 G-vectors     FFT dimensions: (  60,  60, 240)

     Estimated max dynamical RAM per process >      47.85 MB

     Estimated total dynamical RAM >       2.99 GB

     Initial potential from superposition of free atoms

     starting charge      24.9985, renormalised to      25.0000

     negative rho (up, down):  2.490E-03 0.000E+00
     Starting wfcs are   45 randomized atomic wfcs

     total cpu time spent up to now is        3.1 secs

     Self-consistent Calculation

     iteration #  1     ecut=   200.00 Ry     beta= 0.70
     Davidson diagonalization with overlap
     ethr =  1.00E-02,  avg # of iterations =  1.9

     Threshold (ethr) on eigenvalues was too large:
     Diagonalizing with lowered threshold

     Davidson diagonalization with overlap
     ethr =  3.03E-04,  avg # of iterations =  3.6

     negative rho (up, down):  2.672E-06 0.000E+00

     total cpu time spent up to now is        9.3 secs

     total energy              =    -156.02686381 Ry
     estimated scf accuracy    <       0.08676434 Ry

     iteration #  2     ecut=   200.00 Ry     beta= 0.70
     Davidson diagonalization with overlap
     ethr =  3.47E-04,  avg # of iterations =  1.0

     total cpu time spent up to now is       11.8 secs

     total energy              =    -156.01834411 Ry
     estimated scf accuracy    <       0.04053169 Ry

     iteration #  3     ecut=   200.00 Ry     beta= 0.70
     Davidson diagonalization with overlap
     ethr =  1.62E-04,  avg # of iterations =  2.0

     total cpu time spent up to now is       14.6 secs

     total energy              =    -156.02336149 Ry
     estimated scf accuracy    <       0.00451427 Ry

     iteration #  4     ecut=   200.00 Ry     beta= 0.70
     Davidson diagonalization with overlap
     ethr =  1.81E-05,  avg # of iterations =  3.9

     total cpu time spent up to now is       18.0 secs

     total energy              =    -156.02340747 Ry
     estimated scf accuracy    <       0.00193152 Ry

     iteration #  5     ecut=   200.00 Ry     beta= 0.70
     Davidson diagonalization with overlap
     ethr =  7.73E-06,  avg # of iterations =  2.0

     total cpu time spent up to now is       20.8 secs

     total energy              =    -156.02349665 Ry
     estimated scf accuracy    <       0.00073391 Ry

     iteration #  6     ecut=   200.00 Ry     beta= 0.70
     Davidson diagonalization with overlap
     ethr =  2.94E-06,  avg # of iterations =  2.6

     total cpu time spent up to now is       24.0 secs

     total energy              =    -156.02367550 Ry
     estimated scf accuracy    <       0.00024007 Ry

     iteration #  7     ecut=   200.00 Ry     beta= 0.70
     Davidson diagonalization with overlap
     ethr =  9.60E-07,  avg # of iterations =  3.8

     total cpu time spent up to now is       27.4 secs

     total energy              =    -156.02374580 Ry
     estimated scf accuracy    <       0.00006684 Ry

     iteration #  8     ecut=   200.00 Ry     beta= 0.70
     Davidson diagonalization with overlap
     ethr =  2.67E-07,  avg # of iterations =  2.0

     negative rho (up, down):  6.061E-08 0.000E+00

     total cpu time spent up to now is       30.2 secs

     total energy              =    -156.02375166 Ry
     estimated scf accuracy    <       0.00001377 Ry

     iteration #  9     ecut=   200.00 Ry     beta= 0.70
     Davidson diagonalization with overlap
     ethr =  5.51E-08,  avg # of iterations =  3.7

     negative rho (up, down):  4.548E-07 0.000E+00

     total cpu time spent up to now is       33.6 secs

     total energy              =    -156.02375625 Ry
     estimated scf accuracy    <       0.00000049 Ry

     iteration # 10     ecut=   200.00 Ry     beta= 0.70
     Davidson diagonalization with overlap
     ethr =  1.95E-09,  avg # of iterations =  4.1

     negative rho (up, down):  1.039E-06 0.000E+00

     total cpu time spent up to now is       37.5 secs

     total energy              =    -156.02375645 Ry
     estimated scf accuracy    <       0.00000011 Ry

     iteration # 11     ecut=   200.00 Ry     beta= 0.70
     Davidson diagonalization with overlap
     ethr =  4.39E-10,  avg # of iterations =  2.2

     negative rho (up, down):  1.050E-06 0.000E+00

     total cpu time spent up to now is       40.6 secs

     total energy              =    -156.02375647 Ry
     estimated scf accuracy    <          3.7E-09 Ry

     iteration # 12     ecut=   200.00 Ry     beta= 0.70
     Davidson diagonalization with overlap
     ethr =  1.49E-11,  avg # of iterations =  4.8

     negative rho (up, down):  1.164E-06 0.000E+00

     total cpu time spent up to now is       45.1 secs

     total energy              =    -156.02375647 Ry
     estimated scf accuracy    <          1.4E-09 Ry

     iteration # 13     ecut=   200.00 Ry     beta= 0.70
     Davidson diagonalization with overlap
     ethr =  5.64E-12,  avg # of iterations =  2.0

     negative rho (up, down):  1.076E-06 0.000E+00

     total cpu time spent up to now is       48.5 secs

     total energy              =    -156.02375647 Ry
     estimated scf accuracy    <          6.9E-11 Ry

     iteration # 14     ecut=   200.00 Ry     beta= 0.70
     Davidson diagonalization with overlap
     ethr =  2.75E-13,  avg # of iterations =  5.0

     negative rho (up, down):  1.069E-06 0.000E+00

     total cpu time spent up to now is       53.1 secs

     total energy              =    -156.02375647 Ry
     estimated scf accuracy    <          1.5E-10 Ry

     iteration # 15     ecut=   200.00 Ry     beta= 0.70
     Davidson diagonalization with overlap
     ethr =  2.75E-13,  avg # of iterations =  2.0

     negative rho (up, down):  1.076E-06 0.000E+00

     total cpu time spent up to now is       56.2 secs

     total energy              =    -156.02375647 Ry
     estimated scf accuracy    <          5.2E-12 Ry

     iteration # 16     ecut=   200.00 Ry     beta= 0.70
     Davidson diagonalization with overlap
     ethr =  1.00E-13,  avg # of iterations =  2.1

     negative rho (up, down):  1.077E-06 0.000E+00

     total cpu time spent up to now is       58.9 secs

     End of self-consistent calculation

          k = 0.0000 0.0000 0.0000 ( 46815 PWs)   bands (ev):

   -53.9276 -30.0028 -29.9006 -29.9006 -12.3890 -11.4320  -3.6649  -0.6967
    -0.6967  -0.2176   0.2642   0.2642   1.7280   4.0502   4.0502   4.2370
     4.2370

          k = 0.0000 0.0385 0.0000 ( 46743 PWs)   bands (ev):

   -53.9274 -30.0022 -29.9032 -29.9012 -12.3767 -11.4264  -3.6482  -0.7398
    -0.6842  -0.2780   0.2392   0.2977   1.7192   4.0165   4.0775   4.1808
     4.2201

          k = 0.0000 0.0770 0.0000 ( 46731 PWs)   bands (ev):

   -53.9267 -30.0005 -29.9110 -29.9029 -12.3402 -11.4097  -3.5989  -0.8636
    -0.6472  -0.4217   0.1678   0.3579   1.6908   3.9338   4.0430   4.1557
     4.1715

          k = 0.0000 0.1155 0.0000 ( 46731 PWs)   bands (ev):

   -53.9257 -29.9979 -29.9236 -29.9058 -12.2804 -11.3825  -3.5191  -1.0539
    -0.6060  -0.5871   0.0586   0.3956   1.6367   3.8444   3.8779   4.0973
     4.2746

          k = 0.0000 0.1540 0.0000 ( 46727 PWs)   bands (ev):

   -53.9243 -29.9943 -29.9403 -29.9096 -12.1990 -11.3454  -3.4129  -1.2918
    -0.8143  -0.5064  -0.0774   0.3897   1.5499   3.7277   3.7901   4.0062
     4.4210

          k = 0.0000 0.1925 0.0000 ( 46717 PWs)   bands (ev):

   -53.9227 -29.9899 -29.9605 -29.9142 -12.0982 -11.2995  -3.2871  -1.5577
    -1.0407  -0.4086  -0.2290   0.3384   1.4278   3.6182   3.7952   3.9077
     4.5814

          k = 0.0000 0.2309 0.0000 ( 46692 PWs)   bands (ev):

   -53.9208 -29.9850 -29.9833 -29.9193 -11.9812 -11.2463  -3.1531  -1.8314
    -1.2819  -0.3866  -0.2981   0.2537   1.2779   3.5601   3.8114   3.8635
     4.7439

          k = 0.0000 0.2694 0.0000 ( 46710 PWs)   bands (ev):

   -53.9188 -30.0075 -29.9797 -29.9249 -11.8517 -11.1875  -3.0325  -2.0878
    -1.5334  -0.5424  -0.1805   0.1534   1.1175   3.5512   3.7255   3.9840
     4.8989

          k = 0.0000 0.3079 0.0000 ( 46724 PWs)   bands (ev):

   -53.9167 -30.0321 -29.9744 -29.9305 -11.7142 -11.1254  -2.9711  -2.2816
    -1.7881  -0.6903  -0.0618   0.0534   0.9696   3.5819   3.6567   4.1392
     5.0397

          k = 0.0000 0.3464 0.0000 ( 46710 PWs)   bands (ev):

   -53.9147 -30.0561 -29.9691 -29.9361 -11.5741 -11.0625  -3.0337  -2.3516
    -2.0367  -0.8258  -0.0363   0.0519   0.8561   3.6091   3.6404   4.3108
     5.1621

          k = 0.0000 0.3849 0.0000 ( 46748 PWs)   bands (ev):

   -53.9129 -30.0784 -29.9641 -29.9412 -11.4377 -11.0016  -3.1975  -2.3235
    -2.2689  -0.9452  -0.1108   0.1546   0.7921   3.5840   3.7158   4.4815
     5.2642

          k = 0.0000 0.4234 0.0000 ( 46738 PWs)   bands (ev):

   -53.9112 -30.0980 -29.9598 -29.9458 -11.3117 -10.9459  -3.3843  -2.4746
    -2.2742  -1.0460  -0.1690   0.2419   0.7816   3.5793   3.7984   4.6367
     5.3455

          k = 0.0000 0.4619 0.0000 ( 46734 PWs)   bands (ev):

   -53.9098 -30.1142 -29.9562 -29.9495 -11.2034 -10.8984  -3.5527  -2.6446
    -2.2368  -1.1261  -0.2118   0.3106   0.8143   3.5891   3.8796   4.7648
     5.4068

          k = 0.0000 0.5004 0.0000 ( 46732 PWs)   bands (ev):

   -53.9088 -30.1263 -29.9535 -29.9524 -11.1198 -10.8620  -3.6836  -2.7717
    -2.2161  -1.1843  -0.2408   0.3596   0.8679   3.6056   3.9501   4.8585
     5.4493

          k = 0.0000 0.5389 0.0000 ( 46730 PWs)   bands (ev):

   -53.9082 -30.1337 -29.9541 -29.9518 -11.0668 -10.8391  -3.7662  -2.8502
    -2.2073  -1.2196  -0.2574   0.3888   0.9153   3.6199   3.9997   4.9148
     5.4742

          k = 0.0000-0.5774 0.0000 ( 46676 PWs)   bands (ev):

   -53.9079 -30.1362 -29.9547 -29.9512 -11.0487 -10.8313  -3.7944  -2.8767
    -2.2051  -1.2314  -0.2628   0.3985   0.9340   3.6255   4.0177   4.9335
     5.4824

          k = 0.0333 0.0577 0.0000 ( 46753 PWs)   bands (ev):

   -53.9270 -30.0011 -29.9084 -29.9024 -12.3523 -11.4153  -3.6152  -0.8230
    -0.6597  -0.3774   0.1868   0.3463   1.7007   3.9571   4.0852   4.1316
     4.1867

          k = 0.0333 0.0962 0.0000 ( 46716 PWs)   bands (ev):

   -53.9261 -29.9989 -29.9185 -29.9047 -12.3042 -11.3933  -3.5506  -0.9792
    -0.6119  -0.5342   0.0857   0.3995   1.6594   3.8683   3.9376   4.1239
     4.2333

          k = 0.0333 0.1347 0.0000 ( 46704 PWs)   bands (ev):

   -53.9249 -29.9958 -29.9331 -29.9081 -12.2336 -11.3611  -3.4574  -1.1918
    -0.7223  -0.5429  -0.0507   0.4222   1.5888   3.7838   3.7934   4.0403
     4.3696

          k = 0.0333 0.1732 0.0000 ( 46718 PWs)   bands (ev):

   -53.9234 -29.9918 -29.9515 -29.9125 -12.1424 -11.3196  -3.3409  -1.4417
    -0.9323  -0.4558  -0.2076   0.4009   1.4841   3.6559   3.7662   3.9461
     4.5264

          k = 0.0333 0.2117 0.0000 ( 46705 PWs)   bands (ev):

   -53.9216 -29.9872 -29.9728 -29.9175 -12.0335 -11.2700  -3.2098  -1.7096
    -1.1612  -0.3715  -0.3552   0.3384   1.3476   3.5714   3.8011   3.8524
     4.6903

          k = 0.0333 0.2502 0.0000 ( 46706 PWs)   bands (ev):

   -53.9197 -29.9961 -29.9821 -29.9230 -11.9102 -11.2140  -3.0794  -1.9740
    -1.4056  -0.5316  -0.2466   0.2479   1.1927   3.5327   3.7698   3.8947
     4.8503

          k = 0.0333 0.2887 0.0000 ( 46723 PWs)   bands (ev):

   -53.9177 -30.0204 -29.9768 -29.9287 -11.7765 -11.1534  -2.9812  -2.2022
    -1.6593  -0.6806  -0.1366   0.1458   1.0407   3.5299   3.7102   4.0327
     4.9979

          k = 0.0333 0.3272 0.0000 ( 46727 PWs)   bands (ev):

   -53.9156 -30.0445 -29.9714 -29.9345 -11.6376 -11.0908  -2.9777  -2.3341
    -1.9133  -0.8149  -0.0322   0.0455   0.9154   3.5427   3.6882   4.1976
     5.1272

          k = 0.0333 0.3657 0.0000 ( 46746 PWs)   bands (ev):

   -53.9137 -30.0675 -29.9663 -29.9400 -11.4991 -11.0287  -3.1015  -2.3410
    -2.1564  -0.9325  -0.0440   0.0602   0.8362   3.5521   3.7144   4.3720
     5.2345

          k = 0.0333 0.4041 0.0000 ( 46744 PWs)   bands (ev):

   -53.9119 -30.0883 -29.9617 -29.9450 -11.3676 -10.9702  -3.2830  -2.3779
    -2.2939  -1.0324  -0.1186   0.1374   0.8116   3.5622   3.7734   4.5408
     5.3177

          k = 0.0333 0.4426 0.0000 ( 46731 PWs)   bands (ev):

   -53.9104 -30.1061 -29.9577 -29.9492 -11.2501 -10.9184  -3.4619  -2.5679
    -2.2487  -1.1139  -0.1768   0.2000   0.8351   3.5794   3.8455   4.6911
     5.3767

          k = 0.0333 0.4811 0.0000 ( 46756 PWs)   bands (ev):

   -53.9092 -30.1202 -29.9545 -29.9526 -11.1537 -10.8763  -3.6115  -2.7180
    -2.2201  -1.1759  -0.2189   0.2488   0.8874   3.6001   3.9182   4.8132
     5.4136

          k = 0.0333 0.5196 0.0000 ( 46740 PWs)   bands (ev):

   -53.9084 -30.1299 -29.9550 -29.9523 -11.0851 -10.8465  -3.7180  -2.8218
    -2.2065  -1.2177  -0.2461   0.2829   0.9433   3.6177   3.9796   4.8994
     5.4326

          k = 0.0333 0.5581 0.0000 ( 46720 PWs)   bands (ev):

   -53.9079 -30.1348 -29.9562 -29.9512 -11.0494 -10.8310  -3.7732  -2.8748
    -2.2018  -1.2388  -0.2594   0.3004   0.9789   3.6276   4.0158   4.9443
     5.4398

          k = 0.0667 0.1155 0.0000 ( 46687 PWs)   bands (ev):

   -53.9251 -29.9963 -29.9305 -29.9078 -12.2452 -11.3664  -3.4724  -1.1561
    -0.6854  -0.5565  -0.0573   0.4442   1.6017   3.7902   3.8060   4.0498
     4.3568

          k = 0.0667 0.1540 0.0000 ( 46699 PWs)   bands (ev):

   -53.9238 -29.9928 -29.9465 -29.9119 -12.1649 -11.3298  -3.3684  -1.3778
    -0.8615  -0.4843  -0.2358   0.4612   1.5128   3.6794   3.7375   3.9623
     4.5095

          k = 0.0667 0.1925 0.0000 ( 46698 PWs)   bands (ev):

   -53.9222 -29.9885 -29.9658 -29.9169 -12.0655 -11.2845  -3.2451  -1.6260
    -1.0606  -0.4252  -0.3997   0.4378   1.3928   3.5782   3.7357   3.8758
     4.6750

          k = 0.0667 0.2309 0.0000 ( 46729 PWs)   bands (ev):

   -53.9203 -29.9874 -29.9837 -29.9225 -11.9501 -11.2320  -3.1139  -1.8816
    -1.2842  -0.6044  -0.3092   0.3757   1.2510   3.5107   3.7931   3.8038
     4.8399

          k = 0.0667 0.2694 0.0000 ( 46712 PWs)   bands (ev):

   -53.9184 -30.0104 -29.9786 -29.9286 -11.8225 -11.1740  -2.9966  -2.1195
    -1.5292  -0.7606  -0.2206   0.2859   1.1059   3.4750   3.7574   3.9030
     4.9937

          k = 0.0667 0.3079 0.0000 ( 46743 PWs)   bands (ev):

   -53.9163 -30.0339 -29.9733 -29.9347 -11.6871 -11.1127  -2.9408  -2.2932
    -1.7856  -0.8908  -0.1426   0.1822   0.9817   3.4654   3.7412   4.0510
     5.1283

          k = 0.0667 0.3464 0.0000 ( 46711 PWs)   bands (ev):

   -53.9144 -30.0567 -29.9681 -29.9408 -11.5493 -11.0507  -3.0084  -2.3443
    -2.0393  -0.9972  -0.0815   0.0771   0.9000   3.4780   3.7527   4.2211
     5.2378

          k = 0.0667 0.3849 0.0000 ( 46732 PWs)   bands (ev):

   -53.9125 -30.0779 -29.9633 -29.9464 -11.4152 -10.9906  -3.1689  -2.3072
    -2.2770  -1.0830  -0.0371  -0.0203   0.8716   3.5098   3.7844   4.3983
     5.3179

          k = 0.0667 0.4234 0.0000 ( 46707 PWs)   bands (ev):

   -53.9109 -30.0967 -29.9590 -29.9514 -11.2915 -10.9356  -3.3478  -2.4872
    -2.2557  -1.1508  -0.1041  -0.0028   0.8917   3.5527   3.8309   4.5702
     5.3662

          k = 0.0667 0.4619 0.0000 ( 46733 PWs)   bands (ev):

   -53.9096 -30.1121 -29.9555 -29.9555 -11.1853 -10.8887  -3.5082  -2.6604
    -2.2187  -1.2024  -0.1710   0.0275   0.9439   3.5927   3.8905   4.7268
     5.3828

          k = 0.0667 0.5004 0.0000 ( 46741 PWs)   bands (ev):

   -53.9086 -30.1236 -29.9586 -29.9529 -11.1034 -10.8528  -3.6326  -2.7896
    -2.1995  -1.2388  -0.2193   0.0536   1.0070   3.6183   3.9573   4.8593
     5.3727

          k = 0.0667 0.5389 0.0000 ( 46734 PWs)   bands (ev):

   -53.9079 -30.1307 -29.9604 -29.9512 -11.0515 -10.8303  -3.7111  -2.8692
    -2.1920  -1.2605  -0.2484   0.0715   1.0579   3.6291   4.0132   4.9552
     5.3487

          k = 0.0667 0.5774 0.0000 ( 46734 PWs)   bands (ev):

   -53.9077 -30.1331 -29.9611 -29.9507 -11.0338 -10.8226  -3.7379  -2.8961
    -2.1903  -1.2677  -0.2581   0.0779   1.0774   3.6315   4.0353   4.9926
     5.3348

          k = 0.1000 0.1732 0.0000 ( 46677 PWs)   bands (ev):

   -53.9223 -29.9890 -29.9633 -29.9168 -12.0763 -11.2894  -3.2571  -1.5959
    -1.0176  -0.4575  -0.4166   0.4791   1.4085   3.5809   3.7080   3.8826
     4.6733

          k = 0.1000 0.2117 0.0000 ( 46679 PWs)   bands (ev):

   -53.9206 -29.9846 -29.9826 -29.9227 -11.9704 -11.2412  -3.1320  -1.8292
    -1.1975  -0.6779  -0.3470   0.4597   1.2825   3.4980   3.7260   3.8198
     4.8426

          k = 0.1000 0.2502 0.0000 ( 46696 PWs)   bands (ev):

   -53.9188 -30.0036 -29.9797 -29.9291 -11.8507 -11.1866  -3.0087  -2.0573
    -1.4130  -0.8641  -0.2849   0.4020   1.1504   3.4375   3.7844   3.7973
     5.0031

          k = 0.1000 0.2887 0.0000 ( 46696 PWs)   bands (ev):

   -53.9168 -30.0255 -29.9746 -29.9360 -11.7211 -11.1277  -2.9211  -2.2457
    -1.6611  -1.0033  -0.2400   0.3146   1.0342   3.4060   3.7760   3.9153
     5.1445

          k = 0.1000 0.3272 0.0000 ( 46722 PWs)   bands (ev):

   -53.9149 -30.0472 -29.9695 -29.9428 -11.5866 -11.0668  -2.9323  -2.3345
    -1.9218  -1.1035  -0.2188   0.2097   0.9552   3.4088   3.7871   4.0669
     5.2591

          k = 0.1000 0.3657 0.0000 ( 46733 PWs)   bands (ev):

   -53.9130 -30.0679 -29.9646 -29.9493 -11.4528 -11.0064  -3.0566  -2.3141
    -2.1745  -1.1752  -0.2179   0.0993   0.9250   3.4460   3.8086   4.2379
     5.3411

          k = 0.1000 0.4041 0.0000 ( 46716 PWs)   bands (ev):

   -53.9113 -30.0867 -29.9602 -29.9553 -11.3259 -10.9495  -3.2233  -2.4043
    -2.2582  -1.2258  -0.2249  -0.0066   0.9411   3.5086   3.8361   4.4154
     5.3868

          k = 0.1000 0.4426 0.0000 ( 46717 PWs)   bands (ev):

   -53.9099 -30.1028 -29.9604 -29.9563 -11.2129 -10.8991  -3.3841  -2.6003
    -2.2123  -1.2603  -0.2281  -0.1003   0.9914   3.5742   3.8756   4.5894
     5.3947

          k = 0.1000 0.4811 0.0000 ( 46734 PWs)   bands (ev):

   -53.9087 -30.1154 -29.9644 -29.9533 -11.1203 -10.8581  -3.5178  -2.7543
    -2.1864  -1.2823  -0.2240  -0.1758   1.0590   3.6134   3.9395   4.7522
     5.3668

          k = 0.1000 0.5196 0.0000 ( 46733 PWs)   bands (ev):

   -53.9079 -30.1241 -29.9672 -29.9512 -11.0546 -10.8291  -3.6128  -2.8603
    -2.1760  -1.2949  -0.2288  -0.2167   1.1233   3.6208   4.0157   4.8957
     5.3107

          k = 0.1000 0.5581 0.0000 ( 46740 PWs)   bands (ev):

   -53.9075 -30.1286 -29.9686 -29.9502 -11.0204 -10.8141  -3.6620  -2.9143
    -2.1734  -1.3006  -0.2561  -0.2115   1.1628   3.6164   4.0678   5.0003
     5.2486

          k = 0.1333 0.2309 0.0000 ( 46695 PWs)   bands (ev):

   -53.9189 -30.0011 -29.9801 -29.9295 -11.8602 -11.1909  -3.0132  -2.0340
    -1.3584  -0.9169  -0.3089   0.4464   1.1661   3.4241   3.7567   3.7929
     5.0083

          k = 0.1333 0.2694 0.0000 ( 46704 PWs)   bands (ev):

   -53.9171 -30.0207 -29.9753 -29.9370 -11.7384 -11.1353  -2.9133  -2.2140
    -1.5682  -1.0960  -0.2968   0.3943   1.0626   3.3737   3.7926   3.8339
     5.1572

          k = 0.1333 0.3079 0.0000 ( 46729 PWs)   bands (ev):

   -53.9152 -30.0406 -29.9703 -29.9448 -11.6095 -11.0766  -2.8838  -2.3195
    -1.8200  -1.2079  -0.3173   0.3099   0.9910   3.3617   3.8082   3.9524
     5.2795

          k = 0.1333 0.3464 0.0000 ( 46712 PWs)   bands (ev):

   -53.9134 -30.0598 -29.9655 -29.9526 -11.4787 -11.0172  -2.9647  -2.3155
    -2.0807  -1.2751  -0.3653   0.2045   0.9620   3.3938   3.8288   4.1008
     5.3690

          k = 0.1333 0.3849 0.0000 ( 46709 PWs)   bands (ev):

   -53.9117 -30.0776 -29.9610 -29.9599 -11.3517 -10.9597  -3.1066  -2.3260
    -2.2574  -1.3139  -0.4238   0.0901   0.9751   3.4635   3.8482   4.2661
     5.4215

          k = 0.1333 0.4234 0.0000 ( 46721 PWs)   bands (ev):

   -53.9101 -30.0933 -29.9663 -29.9570 -11.2349 -10.9070  -3.2553  -2.5416
    -2.2017  -1.3333  -0.4746  -0.0220   1.0226   3.5468   3.8732   4.4363
     5.4359

          k = 0.1333 0.4619 0.0000 ( 46709 PWs)   bands (ev):

   -53.9089 -30.1063 -29.9717 -29.9537 -11.1350 -10.8622  -3.3863  -2.7183
    -2.1677  -1.3393  -0.5081  -0.1222   1.0925   3.5993   3.9307   4.6017
     5.4141

          k = 0.1333 0.5004 0.0000 ( 46737 PWs)   bands (ev):

   -53.9079 -30.1159 -29.9757 -29.9512 -11.0581 -10.8279  -3.4873  -2.8492
    -2.1540  -1.3375  -0.5252  -0.2017   1.1680   3.5995   4.0258   4.7526
     5.3634

          k = 0.1333 0.5389 0.0000 ( 46748 PWs)   bands (ev):

   -53.9074 -30.1218 -29.9782 -29.9497 -11.0096 -10.8063  -3.5509  -2.9296
    -2.1515  -1.3335  -0.5317  -0.2531   1.2274   3.5783   4.1132   4.8738
     5.3005

          k = 0.1333 0.5774 0.0000 ( 46740 PWs)   bands (ev):

   -53.9072 -30.1238 -29.9790 -29.9492 -10.9930 -10.7989  -3.5726  -2.9568
    -2.1518  -1.3316  -0.5332  -0.2709   1.2502   3.5673   4.1482   4.9270
     5.2664

          k = 0.1667 0.2887 0.0000 ( 46709 PWs)   bands (ev):

   -53.9153 -30.0381 -29.9706 -29.9457 -11.6172 -11.0799  -2.8674  -2.3122
    -1.7747  -1.2555  -0.3533   0.3471   1.0033   3.3451   3.8152   3.9102
     5.2876

          k = 0.1667 0.3272 0.0000 ( 46699 PWs)   bands (ev):

   -53.9135 -30.0551 -29.9660 -29.9548 -11.4919 -11.0226  -2.9125  -2.3145
    -2.0188  -1.3436  -0.4487   0.2657   0.9806   3.3651   3.8395   4.0223
     5.3866

          k = 0.1667 0.3657 0.0000 ( 46695 PWs)   bands (ev):

   -53.9119 -30.0710 -29.9637 -29.9615 -11.3676 -10.9659  -3.0211  -2.2656
    -2.2549  -1.3862  -0.5638   0.1607   0.9944   3.4314   3.8579   4.1597
     5.4505

          k = 0.1667 0.4041 0.0000 ( 46709 PWs)   bands (ev):

   -53.9103 -30.0853 -29.9719 -29.9575 -11.2503 -10.9124  -3.1445  -2.4923
    -2.1892  -1.4003  -0.6747   0.0446   1.0402   3.5210   3.8763   4.3097
     5.4792

          k = 0.1667 0.4426 0.0000 ( 46723 PWs)   bands (ev):

   -53.9090 -30.0974 -29.9791 -29.9540 -11.1462 -10.8651  -3.2580  -2.6857
    -2.1445  -1.3959  -0.7631  -0.0702   1.1113   3.5805   3.9294   4.4601
     5.4753

          k = 0.1667 0.4811 0.0000 ( 46741 PWs)   bands (ev):

   -53.9079 -30.1069 -29.9849 -29.9512 -11.0615 -10.8266  -3.3504  -2.8375
    -2.1258  -1.3810  -0.8220  -0.1717   1.1957   3.5712   4.0399   4.5989
     5.4460

          k = 0.1667 0.5196 0.0000 ( 46727 PWs)   bands (ev):

   -53.9072 -30.1134 -29.9889 -29.9493 -11.0014 -10.7994  -3.4152  -2.9419
    -2.1244  -1.3636  -0.8546  -0.2486   1.2741   3.5271   4.1612   4.7121
     5.4044

          k = 0.1667 0.5581 0.0000 ( 46733 PWs)   bands (ev):

   -53.9068 -30.1168 -29.9909 -29.9484 -10.9703 -10.7854  -3.4486  -2.9950
    -2.1279  -1.3522  -0.8683  -0.2903   1.3223   3.4925   4.2385   4.7795
     5.3720

          k = 0.2000 0.3464 0.0000 ( 46683 PWs)   bands (ev):

   -53.9119 -30.0686 -29.9652 -29.9617 -11.3730 -10.9680  -2.9894  -2.2535
    -2.2421  -1.4146  -0.6147   0.1865   1.0006   3.4200   3.8615   4.1212
     5.4615

          k = 0.2000 0.3849 0.0000 ( 46707 PWs)   bands (ev):

   -53.9104 -30.0806 -29.9755 -29.9577 -11.2582 -10.9151  -3.0789  -2.4632
    -2.1798  -1.4408  -0.7896   0.0828   1.0479   3.5058   3.8792   4.2390
     5.5054

          k = 0.2000 0.4234 0.0000 ( 46723 PWs)   bands (ev):

   -53.9091 -30.0907 -29.9850 -29.9542 -11.1533 -10.8668  -3.1609  -2.6625
    -2.1218  -1.4376  -0.9479  -0.0324   1.1203   3.5651   3.9310   4.3627
     5.5221

          k = 0.2000 0.4619 0.0000 ( 46733 PWs)   bands (ev):

   -53.9079 -30.0988 -29.9932 -29.9512 -11.0641 -10.8256  -3.2272  -2.8277
    -2.0928  -1.4166  -1.0707  -0.1457   1.2112   3.5455   4.0525   4.4792
     5.5180

          k = 0.2000 0.5004 0.0000 ( 46753 PWs)   bands (ev):

   -53.9071 -30.1047 -29.9994 -29.9491 -10.9957 -10.7942  -3.2745  -2.9508
    -2.0909  -1.3882  -1.1503  -0.2430   1.3060   3.4777   4.2015   4.5763
     5.5018

          k = 0.2000 0.5389 0.0000 ( 46744 PWs)   bands (ev):

   -53.9066 -30.1082 -30.0034 -29.9477 -10.9528 -10.7744  -3.3025  -3.0266
    -2.1013  -1.3639  -1.1916  -0.3098   1.3807   3.4118   4.3202   4.6418
     5.4846

          k = 0.2000 0.5774 0.0000 ( 46761 PWs)   bands (ev):

   -53.9064 -30.1094 -30.0047 -29.9473 -10.9381 -10.7676  -3.3118  -3.0523
    -2.1071  -1.3542  -1.2040  -0.3338   1.4095   3.3849   4.3656   4.6652
     5.4773

          k = 0.2333 0.4041 0.0000 ( 46711 PWs)   bands (ev):

   -53.9091 -30.0882 -29.9872 -29.9542 -11.1558 -10.8674  -3.1242  -2.6539
    -2.1114  -1.4530  -1.0172  -0.0187   1.1229   3.5593   3.9320   4.3282
     5.5393

          k = 0.2333 0.4426 0.0000 ( 46754 PWs)   bands (ev):

   -53.9079 -30.0938 -29.9983 -29.9513 -11.0655 -10.8251  -3.1515  -2.8219
    -2.0654  -1.4366  -1.2213  -0.1306   1.2181   3.5305   4.0598   4.4147
     5.5588

          k = 0.2333 0.4811 0.0000 ( 46735 PWs)   bands (ev):

   -53.9070 -30.0976 -30.0077 -29.9489 -10.9924 -10.7908  -3.1613  -2.9562
    -2.0524  -1.4043  -1.3774  -0.2382   1.3249   3.4424   4.2276   4.4880
     5.5692

          k = 0.2333 0.5196 0.0000 ( 46742 PWs)   bands (ev):

   -53.9064 -30.0997 -30.0146 -29.9473 -10.9410 -10.7666  -3.1591  -3.0494
    -2.0691  -1.4721  -1.3695  -0.3252   1.4235   3.3445   4.3802   4.5403
     5.5742

          k = 0.2333 0.5581 0.0000 ( 46730 PWs)   bands (ev):

   -53.9061 -30.1007 -30.0183 -29.9464 -10.9144 -10.7541  -3.1542  -3.0971
    -2.0906  -1.5124  -1.3465  -0.3748   1.4849   3.2803   4.4718   4.5674
     5.5762

          k = 0.2667 0.4619 0.0000 ( 46737 PWs)   bands (ev):

   -53.9070 -30.0947 -30.0109 -29.9488 -10.9913 -10.7897  -3.1164  -2.9580
    -2.0307  -1.4696  -1.4100  -0.2363   1.3312   3.4297   4.2366   4.4575
     5.5931

          k = 0.2667 0.5004 0.0000 ( 46751 PWs)   bands (ev):

   -53.9063 -30.0940 -30.0217 -29.9470 -10.9350 -10.7626  -3.0629  -3.0614
    -2.0336  -1.6576  -1.3715  -0.3336   1.4466   3.3063   4.4117   4.4869
     5.6234

          k = 0.2667 0.5389 0.0000 ( 46731 PWs)   bands (ev):

   -53.9059 -30.0926 -30.0294 -29.9459 -10.8998 -10.7456  -3.1257  -3.0092
    -2.0793  -1.7521  -1.3373  -0.4042   1.5385   3.2035   4.5034   4.5416
     5.6448

          k = 0.2667 0.5774 0.0000 ( 46731 PWs)   bands (ev):

   -53.9058 -30.0919 -30.0322 -29.9455 -10.8879 -10.7398  -3.1476  -2.9853
    -2.1102  -1.7747  -1.3233  -0.4304   1.5746   3.1628   4.5086   4.5901
     5.6525

          k = 0.3000 0.5196 0.0000 ( 46723 PWs)   bands (ev):

   -53.9058 -30.0889 -30.0341 -29.9457 -10.8950 -10.7427  -3.1356  -2.9441
    -2.0747  -1.8502  -1.3333  -0.4149   1.5583   3.1751   4.4813   4.5658
     5.6693

          k = 0.3000 0.5581 0.0000 ( 46737 PWs)   bands (ev):

   -53.9056 -30.0846 -30.0421 -29.9451 -10.8743 -10.7324  -3.1739  -2.8440
    -2.1821  -1.9021  -1.3071  -0.4631   1.6290   3.0917   4.4767   4.6550
     5.6954

          k = 0.3333 0.5774 0.0000 ( 46797 PWs)   bands (ev):

   -53.9055 -30.0803 -30.0480 -29.9448 -10.8657 -10.7279  -3.1903  -2.7478
    -2.2816  -1.9286  -1.2946  -0.4853   1.6645   3.0480   4.4671   4.6960
     5.7137

     the Fermi energy is     1.1377 ev

!    total energy              =    -156.02375647 Ry
     estimated scf accuracy    <          2.0E-14 Ry
     smearing contrib. (-TS)   =      -0.00829425 Ry
     internal energy E=F+TS    =    -156.01546222 Ry

     The total energy is F=E-TS. E is the sum of the following terms:
     one-electron contribution =    -449.61081284 Ry
     hartree contribution      =     226.67947130 Ry
     xc contribution           =     -26.77386507 Ry
     ewald contribution        =      93.68974439 Ry

     convergence has been achieved in  16 iterations

     negative rho (up, down):  1.077E-06 0.000E+00

     Forces acting on atoms (cartesian axes, Ry/au):

     atom    1 type  1   force =     0.00000000    0.00000000    0.00000000
     atom    2 type  2   force =     0.00000000   -0.00000000    0.00001324
     atom    3 type  2   force =    -0.00000000   -0.00000000   -0.00001324

     Total force =     0.000019     Total SCF correction =     0.000000


     Computing stress (Cartesian axis) and pressure


     negative rho (up, down):  1.077E-06 0.000E+00
          total   stress  (Ry/bohr**3)                   (kbar)     P=       -0.01
  -0.00000007  -0.00000000   0.00000000           -0.01       -0.00        0.00
  -0.00000000  -0.00000007   0.00000000           -0.00       -0.01        0.00
   0.00000000  -0.00000000  -0.00000002            0.00       -0.00       -0.00


     Writing all to output data dir ./outdir/0.009.save/
 
     init_run     :      2.69s CPU      2.82s WALL (       1 calls)
     electrons    :     54.76s CPU     55.84s WALL (       1 calls)
     forces       :      0.21s CPU      0.23s WALL (       1 calls)
     stress       :      0.59s CPU      0.60s WALL (       1 calls)

     Called by init_run:
     wfcinit      :      2.43s CPU      2.52s WALL (       1 calls)
     potinit      :      0.03s CPU      0.03s WALL (       1 calls)
     hinit0       :      0.11s CPU      0.16s WALL (       1 calls)

     Called by electrons:
     c_bands      :     44.35s CPU     45.11s WALL (      17 calls)
     sum_band     :      7.27s CPU      7.50s WALL (      17 calls)
     v_of_rho     :      0.13s CPU      0.13s WALL (      17 calls)
     newd         :      0.30s CPU      0.30s WALL (      17 calls)
     mix_rho      :      2.71s CPU      2.72s WALL (      17 calls)

     Called by c_bands:
     init_us_2    :      0.57s CPU      0.60s WALL (    3367 calls)
     init_us_2:cp :      0.57s CPU      0.60s WALL (    3367 calls)
     cegterg      :     41.89s CPU     42.58s WALL (    1547 calls)

     Called by *egterg:
     cdiaghg      :      1.90s CPU      1.97s WALL (    5899 calls)
     h_psi        :     36.69s CPU     37.15s WALL (    6081 calls)
     s_psi        :      0.85s CPU      0.89s WALL (    6081 calls)
     g_psi        :      0.09s CPU      0.10s WALL (    4443 calls)

     Called by h_psi:
     h_psi:calbec :      1.69s CPU      1.78s WALL (    6081 calls)
     vloc_psi     :     33.94s CPU     34.26s WALL (    6081 calls)
     add_vuspsi   :      0.91s CPU      0.96s WALL (    6081 calls)

     General routines
     calbec       :      2.30s CPU      2.46s WALL (    8083 calls)
     fft          :      0.14s CPU      0.14s WALL (     213 calls)
     ffts         :      1.90s CPU      1.92s WALL (    4084 calls)
     fftw         :     38.07s CPU     38.50s WALL (  172001 calls)
 
     Parallel routines
 
     PWSCF        :   1m 0.24s CPU   1m 6.17s WALL

 
   This run was terminated on:   8:49:44  18Jun2022            

=------------------------------------------------------------------------------=
   JOB DONE.
=------------------------------------------------------------------------------=
