
     Program PWSCF v.7.0 starts on 18Jun2022 at  8:56:13 

     This program is part of the open-source Quantum ESPRESSO suite
     for quantum simulation of materials; please cite
         "P. Giannozzi et al., J. Phys.:Condens. Matter 21 395502 (2009);
         "P. Giannozzi et al., J. Phys.:Condens. Matter 29 465901 (2017);
         "P. Giannozzi et al., J. Chem. Phys. 152 154105 (2020);
          URL http://www.quantum-espresso.org", 
     in publications or presentations arising from this work. More details at
     http://www.quantum-espresso.org/quote

     Parallel version (MPI), running on    64 processors

     MPI processes distributed on     1 nodes
     462587 MiB available memory on the printing compute node when the environment starts
 
     Reading input from ./inputs/0.006-scf.in
Warning: card &CELL ignored
Warning: card / ignored

     Current dimensions of program PWSCF are:
     Max number of different atomic species (ntypx) = 10
     Max number of k-points (npk) =  40000
     Max angular momentum in pseudopotentials (lmaxx) =  4
     file Nb.pbe-spn-rrkjus_psl.1.0.0.UPF: wavefunction(s)  4S 4P renormalized
     file Se.pbe-mt_fhi.UPF: wavefunction(s)  4f renormalized
     Message from routine setup:
     using ibrav=0 with symmetry is DISCOURAGED, use correct ibrav instead
 
     R & G space division:  proc/nbgrp/npool/nimage =      64
     Subspace diagonalization in iterative solution of the eigenvalue problem:
     a serial algorithm will be used

 
     Parallelization info
     --------------------
     sticks:   dense  smooth     PW     G-vecs:    dense   smooth      PW
     Min          37      37     10                 5835     5835     828
     Max          39      39     11                 5848     5848     847
     Sum        2395    2395    649               373777   373777   53367
 
     Using Slab Decomposition
 


     bravais-lattice index     =            0
     lattice parameter (alat)  =       6.5764  a.u.
     unit-cell volume          =     977.7698 (a.u.)^3
     number of atoms/cell      =            3
     number of atomic types    =            2
     number of electrons       =        25.00
     number of Kohn-Sham states=           17
     kinetic-energy cutoff     =     200.0000  Ry
     charge density cutoff     =     800.0000  Ry
     scf convergence threshold =      1.0E-12
     mixing beta               =       0.7000
     number of iterations used =            8  local-TF  mixing
     Exchange-correlation= PBE
                           (   1   4   3   4   0   0   0)

     celldm(1)=   6.576394  celldm(2)=   0.000000  celldm(3)=   0.000000
     celldm(4)=   0.000000  celldm(5)=   0.000000  celldm(6)=   0.000000

     crystal axes: (cart. coord. in units of alat)
               a(1) = (   1.000000   0.000000   0.000000 )  
               a(2) = (  -0.500000   0.866025   0.000000 )  
               a(3) = (   0.000000   0.000000   3.969561 )  

     reciprocal axes: (cart. coord. in units 2 pi/alat)
               b(1) = (  1.000000  0.577350  0.000000 )  
               b(2) = (  0.000000  1.154701  0.000000 )  
               b(3) = (  0.000000  0.000000  0.251917 )  


     PseudoPot. # 1 for Nb read from file:
     ./PP/Nb.pbe-spn-rrkjus_psl.1.0.0.UPF
     MD5 check sum: 6ee677a9f002bd3e3657f443f129faad
     Pseudo is Ultrasoft + core correction, Zval = 13.0
     Generated using &quot;atomic&quot; code by A. Dal Corso  v.6.2.2
     Using radial grid of 1227 points,  6 beta functions with: 
                l(1) =   0
                l(2) =   0
                l(3) =   1
                l(4) =   1
                l(5) =   2
                l(6) =   2
     Q(r) pseudized with 0 coefficients 


     PseudoPot. # 2 for Se read from file:
     ./PP/Se.pbe-mt_fhi.UPF
     MD5 check sum: 761aa2365a2a775fd78ad90d13f3567a
     Pseudo is Norm-conserving, Zval =  6.0
     Generated using FHI98PP, converted with fhi2upf.x v.5.0.2
     Using radial grid of  533 points,  3 beta functions with: 
                l(1) =   0
                l(2) =   1
                l(3) =   3

     atomic species   valence    mass     pseudopotential
        Nb            13.00    92.90000     Nb( 1.00)
        Se             6.00    78.96000     Se( 1.00)

     12 Sym. Ops. (no inversion) found



   Cartesian axes

     site n.     atom                  positions (alat units)
         1           Nb  tau(   1) = (   0.0000000   0.0000000   1.9847804  )
         2           Se  tau(   2) = (  -0.0000000   0.5773503   1.5019916  )
         3           Se  tau(   3) = (  -0.0000000   0.5773503   2.4675692  )

     number of k points=    91  Fermi-Dirac smearing, width (Ry)=  0.0060
                       cart. coord. in units 2pi/alat
        k(    1) = (   0.0000000   0.0000000   0.0000000), wk =   0.0022222
        k(    2) = (   0.0000000   0.0384900   0.0000000), wk =   0.0133333
        k(    3) = (   0.0000000   0.0769800   0.0000000), wk =   0.0133333
        k(    4) = (   0.0000000   0.1154701   0.0000000), wk =   0.0133333
        k(    5) = (   0.0000000   0.1539601   0.0000000), wk =   0.0133333
        k(    6) = (   0.0000000   0.1924501   0.0000000), wk =   0.0133333
        k(    7) = (   0.0000000   0.2309401   0.0000000), wk =   0.0133333
        k(    8) = (   0.0000000   0.2694301   0.0000000), wk =   0.0133333
        k(    9) = (   0.0000000   0.3079201   0.0000000), wk =   0.0133333
        k(   10) = (   0.0000000   0.3464102   0.0000000), wk =   0.0133333
        k(   11) = (   0.0000000   0.3849002   0.0000000), wk =   0.0133333
        k(   12) = (   0.0000000   0.4233902   0.0000000), wk =   0.0133333
        k(   13) = (   0.0000000   0.4618802   0.0000000), wk =   0.0133333
        k(   14) = (   0.0000000   0.5003702   0.0000000), wk =   0.0133333
        k(   15) = (   0.0000000   0.5388603   0.0000000), wk =   0.0133333
        k(   16) = (   0.0000000  -0.5773503   0.0000000), wk =   0.0066667
        k(   17) = (   0.0333333   0.0577350   0.0000000), wk =   0.0133333
        k(   18) = (   0.0333333   0.0962250   0.0000000), wk =   0.0266667
        k(   19) = (   0.0333333   0.1347151   0.0000000), wk =   0.0266667
        k(   20) = (   0.0333333   0.1732051   0.0000000), wk =   0.0266667
        k(   21) = (   0.0333333   0.2116951   0.0000000), wk =   0.0266667
        k(   22) = (   0.0333333   0.2501851   0.0000000), wk =   0.0266667
        k(   23) = (   0.0333333   0.2886751   0.0000000), wk =   0.0266667
        k(   24) = (   0.0333333   0.3271652   0.0000000), wk =   0.0266667
        k(   25) = (   0.0333333   0.3656552   0.0000000), wk =   0.0266667
        k(   26) = (   0.0333333   0.4041452   0.0000000), wk =   0.0266667
        k(   27) = (   0.0333333   0.4426352   0.0000000), wk =   0.0266667
        k(   28) = (   0.0333333   0.4811252   0.0000000), wk =   0.0266667
        k(   29) = (   0.0333333   0.5196152   0.0000000), wk =   0.0266667
        k(   30) = (   0.0333333   0.5581053   0.0000000), wk =   0.0266667
        k(   31) = (   0.0666667   0.1154701   0.0000000), wk =   0.0133333
        k(   32) = (   0.0666667   0.1539601   0.0000000), wk =   0.0266667
        k(   33) = (   0.0666667   0.1924501   0.0000000), wk =   0.0266667
        k(   34) = (   0.0666667   0.2309401   0.0000000), wk =   0.0266667
        k(   35) = (   0.0666667   0.2694301   0.0000000), wk =   0.0266667
        k(   36) = (   0.0666667   0.3079201   0.0000000), wk =   0.0266667
        k(   37) = (   0.0666667   0.3464102   0.0000000), wk =   0.0266667
        k(   38) = (   0.0666667   0.3849002   0.0000000), wk =   0.0266667
        k(   39) = (   0.0666667   0.4233902   0.0000000), wk =   0.0266667
        k(   40) = (   0.0666667   0.4618802   0.0000000), wk =   0.0266667
        k(   41) = (   0.0666667   0.5003702   0.0000000), wk =   0.0266667
        k(   42) = (   0.0666667   0.5388603   0.0000000), wk =   0.0266667
        k(   43) = (   0.0666667   0.5773503   0.0000000), wk =   0.0133333
        k(   44) = (   0.1000000   0.1732051   0.0000000), wk =   0.0133333
        k(   45) = (   0.1000000   0.2116951   0.0000000), wk =   0.0266667
        k(   46) = (   0.1000000   0.2501851   0.0000000), wk =   0.0266667
        k(   47) = (   0.1000000   0.2886751   0.0000000), wk =   0.0266667
        k(   48) = (   0.1000000   0.3271652   0.0000000), wk =   0.0266667
        k(   49) = (   0.1000000   0.3656552   0.0000000), wk =   0.0266667
        k(   50) = (   0.1000000   0.4041452   0.0000000), wk =   0.0266667
        k(   51) = (   0.1000000   0.4426352   0.0000000), wk =   0.0266667
        k(   52) = (   0.1000000   0.4811252   0.0000000), wk =   0.0266667
        k(   53) = (   0.1000000   0.5196152   0.0000000), wk =   0.0266667
        k(   54) = (   0.1000000   0.5581053   0.0000000), wk =   0.0266667
        k(   55) = (   0.1333333   0.2309401   0.0000000), wk =   0.0133333
        k(   56) = (   0.1333333   0.2694301   0.0000000), wk =   0.0266667
        k(   57) = (   0.1333333   0.3079201   0.0000000), wk =   0.0266667
        k(   58) = (   0.1333333   0.3464102   0.0000000), wk =   0.0266667
        k(   59) = (   0.1333333   0.3849002   0.0000000), wk =   0.0266667
        k(   60) = (   0.1333333   0.4233902   0.0000000), wk =   0.0266667
        k(   61) = (   0.1333333   0.4618802   0.0000000), wk =   0.0266667
        k(   62) = (   0.1333333   0.5003702   0.0000000), wk =   0.0266667
        k(   63) = (   0.1333333   0.5388603   0.0000000), wk =   0.0266667
        k(   64) = (   0.1333333   0.5773503   0.0000000), wk =   0.0133333
        k(   65) = (   0.1666667   0.2886751   0.0000000), wk =   0.0133333
        k(   66) = (   0.1666667   0.3271652   0.0000000), wk =   0.0266667
        k(   67) = (   0.1666667   0.3656552   0.0000000), wk =   0.0266667
        k(   68) = (   0.1666667   0.4041452   0.0000000), wk =   0.0266667
        k(   69) = (   0.1666667   0.4426352   0.0000000), wk =   0.0266667
        k(   70) = (   0.1666667   0.4811252   0.0000000), wk =   0.0266667
        k(   71) = (   0.1666667   0.5196152   0.0000000), wk =   0.0266667
        k(   72) = (   0.1666667   0.5581053   0.0000000), wk =   0.0266667
        k(   73) = (   0.2000000   0.3464102   0.0000000), wk =   0.0133333
        k(   74) = (   0.2000000   0.3849002   0.0000000), wk =   0.0266667
        k(   75) = (   0.2000000   0.4233902   0.0000000), wk =   0.0266667
        k(   76) = (   0.2000000   0.4618802   0.0000000), wk =   0.0266667
        k(   77) = (   0.2000000   0.5003702   0.0000000), wk =   0.0266667
        k(   78) = (   0.2000000   0.5388603   0.0000000), wk =   0.0266667
        k(   79) = (   0.2000000   0.5773503   0.0000000), wk =   0.0133333
        k(   80) = (   0.2333333   0.4041452   0.0000000), wk =   0.0133333
        k(   81) = (   0.2333333   0.4426352   0.0000000), wk =   0.0266667
        k(   82) = (   0.2333333   0.4811252   0.0000000), wk =   0.0266667
        k(   83) = (   0.2333333   0.5196152   0.0000000), wk =   0.0266667
        k(   84) = (   0.2333333   0.5581053   0.0000000), wk =   0.0266667
        k(   85) = (   0.2666667   0.4618802   0.0000000), wk =   0.0133333
        k(   86) = (   0.2666667   0.5003702   0.0000000), wk =   0.0266667
        k(   87) = (   0.2666667   0.5388603   0.0000000), wk =   0.0266667
        k(   88) = (   0.2666667   0.5773503   0.0000000), wk =   0.0133333
        k(   89) = (   0.3000000   0.5196152   0.0000000), wk =   0.0133333
        k(   90) = (   0.3000000   0.5581053   0.0000000), wk =   0.0266667
        k(   91) = (   0.3333333   0.5773503   0.0000000), wk =   0.0044444

     Dense  grid:   373777 G-vectors     FFT dimensions: (  60,  60, 240)

     Estimated max dynamical RAM per process >      47.83 MB

     Estimated total dynamical RAM >       2.99 GB

     Initial potential from superposition of free atoms

     starting charge      24.9985, renormalised to      25.0000

     negative rho (up, down):  2.473E-03 0.000E+00
     Starting wfcs are   45 randomized atomic wfcs

     total cpu time spent up to now is        3.1 secs

     Self-consistent Calculation

     iteration #  1     ecut=   200.00 Ry     beta= 0.70
     Davidson diagonalization with overlap
     ethr =  1.00E-02,  avg # of iterations =  1.9

     Threshold (ethr) on eigenvalues was too large:
     Diagonalizing with lowered threshold

     Davidson diagonalization with overlap
     ethr =  3.04E-04,  avg # of iterations =  3.5

     negative rho (up, down):  2.696E-06 0.000E+00

     total cpu time spent up to now is        9.2 secs

     total energy              =    -156.02437988 Ry
     estimated scf accuracy    <       0.08706498 Ry

     iteration #  2     ecut=   200.00 Ry     beta= 0.70
     Davidson diagonalization with overlap
     ethr =  3.48E-04,  avg # of iterations =  1.0

     total cpu time spent up to now is       11.7 secs

     total energy              =    -156.01582578 Ry
     estimated scf accuracy    <       0.04073114 Ry

     iteration #  3     ecut=   200.00 Ry     beta= 0.70
     Davidson diagonalization with overlap
     ethr =  1.63E-04,  avg # of iterations =  2.0

     total cpu time spent up to now is       14.6 secs

     total energy              =    -156.02090453 Ry
     estimated scf accuracy    <       0.00457343 Ry

     iteration #  4     ecut=   200.00 Ry     beta= 0.70
     Davidson diagonalization with overlap
     ethr =  1.83E-05,  avg # of iterations =  3.9

     total cpu time spent up to now is       17.9 secs

     total energy              =    -156.02094384 Ry
     estimated scf accuracy    <       0.00194457 Ry

     iteration #  5     ecut=   200.00 Ry     beta= 0.70
     Davidson diagonalization with overlap
     ethr =  7.78E-06,  avg # of iterations =  2.2

     total cpu time spent up to now is       20.8 secs

     total energy              =    -156.02104179 Ry
     estimated scf accuracy    <       0.00071386 Ry

     iteration #  6     ecut=   200.00 Ry     beta= 0.70
     Davidson diagonalization with overlap
     ethr =  2.86E-06,  avg # of iterations =  2.6

     total cpu time spent up to now is       23.7 secs

     total energy              =    -156.02122422 Ry
     estimated scf accuracy    <       0.00023429 Ry

     iteration #  7     ecut=   200.00 Ry     beta= 0.70
     Davidson diagonalization with overlap
     ethr =  9.37E-07,  avg # of iterations =  3.7

     total cpu time spent up to now is       27.1 secs

     total energy              =    -156.02129184 Ry
     estimated scf accuracy    <       0.00006032 Ry

     iteration #  8     ecut=   200.00 Ry     beta= 0.70
     Davidson diagonalization with overlap
     ethr =  2.41E-07,  avg # of iterations =  1.9

     negative rho (up, down):  1.580E-07 0.000E+00

     total cpu time spent up to now is       30.0 secs

     total energy              =    -156.02129760 Ry
     estimated scf accuracy    <       0.00001304 Ry

     iteration #  9     ecut=   200.00 Ry     beta= 0.70
     Davidson diagonalization with overlap
     ethr =  5.21E-08,  avg # of iterations =  3.7

     negative rho (up, down):  4.760E-07 0.000E+00

     total cpu time spent up to now is       33.4 secs

     total energy              =    -156.02130201 Ry
     estimated scf accuracy    <       0.00000053 Ry

     iteration # 10     ecut=   200.00 Ry     beta= 0.70
     Davidson diagonalization with overlap
     ethr =  2.14E-09,  avg # of iterations =  3.9

     negative rho (up, down):  1.163E-06 0.000E+00

     total cpu time spent up to now is       37.2 secs

     total energy              =    -156.02130223 Ry
     estimated scf accuracy    <       0.00000008 Ry

     iteration # 11     ecut=   200.00 Ry     beta= 0.70
     Davidson diagonalization with overlap
     ethr =  3.07E-10,  avg # of iterations =  2.8

     negative rho (up, down):  1.120E-06 0.000E+00

     total cpu time spent up to now is       40.4 secs

     total energy              =    -156.02130224 Ry
     estimated scf accuracy    <          2.0E-09 Ry

     iteration # 12     ecut=   200.00 Ry     beta= 0.70
     Davidson diagonalization with overlap
     ethr =  8.15E-12,  avg # of iterations =  5.1

     negative rho (up, down):  1.288E-06 0.000E+00

     total cpu time spent up to now is       45.2 secs

     total energy              =    -156.02130225 Ry
     estimated scf accuracy    <          1.1E-09 Ry

     iteration # 13     ecut=   200.00 Ry     beta= 0.70
     Davidson diagonalization with overlap
     ethr =  4.43E-12,  avg # of iterations =  2.0

     negative rho (up, down):  1.180E-06 0.000E+00

     total cpu time spent up to now is       48.2 secs

     total energy              =    -156.02130225 Ry
     estimated scf accuracy    <          2.8E-11 Ry

     iteration # 14     ecut=   200.00 Ry     beta= 0.70
     Davidson diagonalization with overlap
     ethr =  1.13E-13,  avg # of iterations =  5.0

     negative rho (up, down):  1.184E-06 0.000E+00

     total cpu time spent up to now is       53.0 secs

     total energy              =    -156.02130225 Ry
     estimated scf accuracy    <          6.0E-11 Ry

     iteration # 15     ecut=   200.00 Ry     beta= 0.70
     Davidson diagonalization with overlap
     ethr =  1.13E-13,  avg # of iterations =  2.0

     negative rho (up, down):  1.190E-06 0.000E+00

     total cpu time spent up to now is       56.0 secs

     total energy              =    -156.02130225 Ry
     estimated scf accuracy    <          4.0E-12 Ry

     iteration # 16     ecut=   200.00 Ry     beta= 0.70
     Davidson diagonalization with overlap
     ethr =  1.00E-13,  avg # of iterations =  2.0

     negative rho (up, down):  1.191E-06 0.000E+00

     total cpu time spent up to now is       58.6 secs

     End of self-consistent calculation

          k = 0.0000 0.0000 0.0000 ( 46815 PWs)   bands (ev):

   -53.9263 -30.0010 -29.8991 -29.8991 -12.3880 -11.4299  -3.6638  -0.6942
    -0.6942  -0.2149   0.2676   0.2676   1.7302   4.0558   4.0558   4.2430
     4.2430

          k = 0.0000 0.0385 0.0000 ( 46731 PWs)   bands (ev):

   -53.9261 -30.0004 -29.9018 -29.8997 -12.3757 -11.4243  -3.6470  -0.7373
    -0.6817  -0.2754   0.2427   0.3013   1.7215   4.0220   4.0831   4.1867
     4.2261

          k = 0.0000 0.0770 0.0000 ( 46715 PWs)   bands (ev):

   -53.9255 -29.9987 -29.9096 -29.9015 -12.3392 -11.4076  -3.5977  -0.8612
    -0.6446  -0.4192   0.1712   0.3616   1.6931   3.9392   4.0485   4.1614
     4.1774

          k = 0.0000 0.1155 0.0000 ( 46715 PWs)   bands (ev):

   -53.9245 -29.9960 -29.9222 -29.9043 -12.2793 -11.3803  -3.5178  -1.0514
    -0.6036  -0.5844   0.0619   0.3995   1.6391   3.8496   3.8830   4.1030
     4.2804

          k = 0.0000 0.1540 0.0000 ( 46699 PWs)   bands (ev):

   -53.9231 -29.9924 -29.9390 -29.9082 -12.1977 -11.3432  -3.4115  -1.2893
    -0.8121  -0.5036  -0.0742   0.3937   1.5523   3.7324   3.7951   4.0117
     4.4269

          k = 0.0000 0.1925 0.0000 ( 46691 PWs)   bands (ev):

   -53.9214 -29.9881 -29.9593 -29.9128 -12.0968 -11.2973  -3.2857  -1.5552
    -1.0387  -0.4056  -0.2259   0.3424   1.4302   3.6225   3.8002   3.9130
     4.5874

          k = 0.0000 0.2309 0.0000 ( 46672 PWs)   bands (ev):

   -53.9195 -29.9831 -29.9821 -29.9180 -11.9796 -11.2440  -3.1517  -1.8289
    -1.2800  -0.3837  -0.2949   0.2576   1.2802   3.5641   3.8165   3.8685
     4.7499

          k = 0.0000 0.2694 0.0000 ( 46698 PWs)   bands (ev):

   -53.9175 -30.0063 -29.9779 -29.9235 -11.8499 -11.1852  -3.0311  -2.0852
    -1.5316  -0.5396  -0.1770   0.1572   1.1197   3.5551   3.7304   3.9891
     4.9051

          k = 0.0000 0.3079 0.0000 ( 46702 PWs)   bands (ev):

   -53.9155 -30.0310 -29.9725 -29.9292 -11.7122 -11.1230  -2.9699  -2.2788
    -1.7865  -0.6877  -0.0580   0.0569   0.9718   3.5857   3.6614   4.1444
     5.0459

          k = 0.0000 0.3464 0.0000 ( 46688 PWs)   bands (ev):

   -53.9134 -30.0551 -29.9672 -29.9347 -11.5719 -11.0600  -3.0326  -2.3487
    -2.0352  -0.8232  -0.0329   0.0559   0.8582   3.6136   3.6444   4.3160
     5.1684

          k = 0.0000 0.3849 0.0000 ( 46748 PWs)   bands (ev):

   -53.9116 -30.0774 -29.9622 -29.9399 -11.4352 -10.9990  -3.1964  -2.3208
    -2.2675  -0.9427  -0.1075   0.1589   0.7942   3.5884   3.7199   4.4869
     5.2705

          k = 0.0000 0.4234 0.0000 ( 46714 PWs)   bands (ev):

   -53.9099 -30.0971 -29.9578 -29.9445 -11.3090 -10.9432  -3.3832  -2.4733
    -2.2717  -1.0436  -0.1659   0.2463   0.7838   3.5836   3.8028   4.6421
     5.3518

          k = 0.0000 0.4619 0.0000 ( 46698 PWs)   bands (ev):

   -53.9085 -30.1134 -29.9542 -29.9482 -11.2005 -10.8957  -3.5517  -2.6435
    -2.2345  -1.1238  -0.2089   0.3152   0.8167   3.5934   3.8841   4.7702
     5.4131

          k = 0.0000 0.5004 0.0000 ( 46710 PWs)   bands (ev):

   -53.9075 -30.1255 -29.9515 -29.9511 -11.1168 -10.8592  -3.6826  -2.7706
    -2.2140  -1.1821  -0.2379   0.3644   0.8706   3.6098   3.9549   4.8640
     5.4556

          k = 0.0000 0.5389 0.0000 ( 46710 PWs)   bands (ev):

   -53.9068 -30.1329 -29.9528 -29.9498 -11.0637 -10.8363  -3.7653  -2.8491
    -2.2054  -1.2174  -0.2546   0.3936   0.9181   3.6241   4.0047   4.9203
     5.4805

          k = 0.0000-0.5774 0.0000 ( 46676 PWs)   bands (ev):

   -53.9066 -30.1355 -29.9534 -29.9492 -11.0456 -10.8285  -3.7936  -2.8757
    -2.2032  -1.2292  -0.2600   0.4033   0.9368   3.6297   4.0228   4.9390
     5.4887

          k = 0.0333 0.0577 0.0000 ( 46739 PWs)   bands (ev):

   -53.9257 -29.9993 -29.9070 -29.9009 -12.3513 -11.4131  -3.6140  -0.8205
    -0.6571  -0.3748   0.1902   0.3500   1.7030   3.9625   4.0909   4.1372
     4.1926

          k = 0.0333 0.0962 0.0000 ( 46691 PWs)   bands (ev):

   -53.9249 -29.9971 -29.9171 -29.9033 -12.3031 -11.3912  -3.5493  -0.9767
    -0.6093  -0.5318   0.0890   0.4034   1.6617   3.8736   3.9429   4.1297
     4.2390

          k = 0.0333 0.1347 0.0000 ( 46678 PWs)   bands (ev):

   -53.9237 -29.9940 -29.9318 -29.9067 -12.2323 -11.3590  -3.4560  -1.1893
    -0.7201  -0.5401  -0.0475   0.4261   1.5912   3.7886   3.7985   4.0459
     4.3754

          k = 0.0333 0.1732 0.0000 ( 46704 PWs)   bands (ev):

   -53.9222 -29.9900 -29.9502 -29.9111 -12.1411 -11.3174  -3.3395  -1.4392
    -0.9303  -0.4529  -0.2045   0.4049   1.4865   3.6603   3.7712   3.9515
     4.5323

          k = 0.0333 0.2117 0.0000 ( 46685 PWs)   bands (ev):

   -53.9204 -29.9853 -29.9716 -29.9161 -12.0320 -11.2678  -3.2083  -1.7071
    -1.1593  -0.3686  -0.3521   0.3424   1.3500   3.5755   3.8061   3.8575
     4.6963

          k = 0.0333 0.2502 0.0000 ( 46689 PWs)   bands (ev):

   -53.9184 -29.9949 -29.9802 -29.9216 -11.9085 -11.2116  -3.0780  -1.9714
    -1.4038  -0.5288  -0.2433   0.2518   1.1950   3.5367   3.7748   3.8997
     4.8564

          k = 0.0333 0.2887 0.0000 ( 46708 PWs)   bands (ev):

   -53.9164 -30.0193 -29.9749 -29.9274 -11.7746 -11.1510  -2.9799  -2.1995
    -1.6577  -0.6780  -0.1330   0.1495   1.0429   3.5338   3.7148   4.0378
     5.0041

          k = 0.0333 0.3272 0.0000 ( 46699 PWs)   bands (ev):

   -53.9143 -30.0435 -29.9695 -29.9331 -11.6355 -11.0883  -2.9766  -2.3312
    -1.9117  -0.8123  -0.0284   0.0491   0.9175   3.5468   3.6927   4.2027
     5.1335

          k = 0.0333 0.3657 0.0000 ( 46719 PWs)   bands (ev):

   -53.9124 -30.0665 -29.9644 -29.9387 -11.4967 -11.0262  -3.1005  -2.3382
    -2.1550  -0.9300  -0.0407   0.0642   0.8383   3.5563   3.7186   4.3773
     5.2407

          k = 0.0333 0.4041 0.0000 ( 46716 PWs)   bands (ev):

   -53.9106 -30.0874 -29.9597 -29.9437 -11.3650 -10.9676  -3.2820  -2.3766
    -2.2913  -1.0301  -0.1154   0.1416   0.8139   3.5665   3.7777   4.5462
     5.3240

          k = 0.0333 0.4426 0.0000 ( 46709 PWs)   bands (ev):

   -53.9091 -30.1053 -29.9557 -29.9479 -11.2473 -10.9157  -3.4609  -2.5667
    -2.2463  -1.1115  -0.1737   0.2043   0.8376   3.5836   3.8500   4.6966
     5.3830

          k = 0.0333 0.4811 0.0000 ( 46731 PWs)   bands (ev):

   -53.9079 -30.1194 -29.9526 -29.9513 -11.1508 -10.8735  -3.6105  -2.7169
    -2.2180  -1.1736  -0.2160   0.2532   0.8901   3.6043   3.9229   4.8187
     5.4198

          k = 0.0333 0.5196 0.0000 ( 46717 PWs)   bands (ev):

   -53.9070 -30.1291 -29.9537 -29.9504 -11.0821 -10.8437  -3.7171  -2.8207
    -2.2045  -1.2155  -0.2432   0.2874   0.9462   3.6220   3.9845   4.9049
     5.4388

          k = 0.0333 0.5581 0.0000 ( 46690 PWs)   bands (ev):

   -53.9066 -30.1340 -29.9549 -29.9492 -11.0463 -10.8282  -3.7723  -2.8738
    -2.1999  -1.2365  -0.2566   0.3050   0.9819   3.6319   4.0209   4.9498
     5.4459

          k = 0.0667 0.1155 0.0000 ( 46671 PWs)   bands (ev):

   -53.9239 -29.9945 -29.9292 -29.9064 -12.2440 -11.3643  -3.4711  -1.1536
    -0.6832  -0.5538  -0.0541   0.4482   1.6040   3.7953   3.8109   4.0554
     4.3627

          k = 0.0667 0.1540 0.0000 ( 46683 PWs)   bands (ev):

   -53.9225 -29.9909 -29.9452 -29.9105 -12.1635 -11.3276  -3.3670  -1.3753
    -0.8594  -0.4814  -0.2327   0.4653   1.5152   3.6839   3.7424   3.9677
     4.5154

          k = 0.0667 0.1925 0.0000 ( 46668 PWs)   bands (ev):

   -53.9209 -29.9867 -29.9645 -29.9155 -12.0640 -11.2823  -3.2437  -1.6235
    -1.0586  -0.4223  -0.3966   0.4419   1.3953   3.5824   3.7406   3.8809
     4.6810

          k = 0.0667 0.2309 0.0000 ( 46703 PWs)   bands (ev):

   -53.9191 -29.9862 -29.9819 -29.9212 -11.9485 -11.2297  -3.1124  -1.8791
    -1.2823  -0.6017  -0.3059   0.3798   1.2533   3.5147   3.7980   3.8088
     4.8460

          k = 0.0667 0.2694 0.0000 ( 46693 PWs)   bands (ev):

   -53.9171 -30.0093 -29.9767 -29.9272 -11.8207 -11.1717  -2.9952  -2.1169
    -1.5275  -0.7581  -0.2171   0.2898   1.1082   3.4790   3.7620   3.9079
     4.9999

          k = 0.0667 0.3079 0.0000 ( 46707 PWs)   bands (ev):

   -53.9151 -30.0328 -29.9714 -29.9334 -11.6851 -11.1103  -2.9396  -2.2903
    -1.7839  -0.8884  -0.1389   0.1860   0.9839   3.4693   3.7458   4.0560
     5.1346

          k = 0.0667 0.3464 0.0000 ( 46701 PWs)   bands (ev):

   -53.9131 -30.0557 -29.9662 -29.9394 -11.5471 -11.0481  -3.0074  -2.3414
    -2.0378  -0.9949  -0.0777   0.0807   0.9022   3.4820   3.7571   4.2262
     5.2441

          k = 0.0667 0.3849 0.0000 ( 46715 PWs)   bands (ev):

   -53.9112 -30.0770 -29.9614 -29.9451 -11.4128 -10.9880  -3.1678  -2.3045
    -2.2756  -1.0808  -0.0333  -0.0168   0.8739   3.5138   3.7888   4.4036
     5.3242

          k = 0.0667 0.4234 0.0000 ( 46690 PWs)   bands (ev):

   -53.9096 -30.0958 -29.9571 -29.9501 -11.2889 -10.9329  -3.3468  -2.4859
    -2.2532  -1.1486  -0.1009   0.0011   0.8942   3.5568   3.8355   4.5756
     5.3723

          k = 0.0667 0.4619 0.0000 ( 46718 PWs)   bands (ev):

   -53.9083 -30.1112 -29.9542 -29.9535 -11.1824 -10.8860  -3.5072  -2.6593
    -2.2165  -1.2002  -0.1679   0.0315   0.9467   3.5969   3.8952   4.7323
     5.3889

          k = 0.0667 0.5004 0.0000 ( 46727 PWs)   bands (ev):

   -53.9072 -30.1228 -29.9573 -29.9509 -11.1003 -10.8501  -3.6317  -2.7885
    -2.1974  -1.2366  -0.2163   0.0577   1.0100   3.6226   3.9621   4.8648
     5.3787

          k = 0.0667 0.5389 0.0000 ( 46716 PWs)   bands (ev):

   -53.9066 -30.1299 -29.9592 -29.9493 -11.0484 -10.8274  -3.7102  -2.8682
    -2.1900  -1.2583  -0.2455   0.0757   1.0609   3.6334   4.0181   4.9608
     5.3546

          k = 0.0667 0.5774 0.0000 ( 46726 PWs)   bands (ev):

   -53.9064 -30.1323 -29.9598 -29.9487 -11.0306 -10.8197  -3.7370  -2.8951
    -2.1884  -1.2655  -0.2552   0.0821   1.0805   3.6358   4.0403   4.9983
     5.3407

          k = 0.1000 0.1732 0.0000 ( 46657 PWs)   bands (ev):

   -53.9211 -29.9871 -29.9620 -29.9154 -12.0748 -11.2872  -3.2556  -1.5934
    -1.0156  -0.4547  -0.4135   0.4832   1.4109   3.5852   3.7128   3.8877
     4.6794

          k = 0.1000 0.2117 0.0000 ( 46661 PWs)   bands (ev):

   -53.9194 -29.9827 -29.9814 -29.9213 -11.9688 -11.2389  -3.1305  -1.8267
    -1.1956  -0.6753  -0.3438   0.4639   1.2849   3.5020   3.7308   3.8247
     4.8487

          k = 0.1000 0.2502 0.0000 ( 46676 PWs)   bands (ev):

   -53.9175 -30.0025 -29.9778 -29.9278 -11.8489 -11.1843  -3.0073  -2.0546
    -1.4112  -0.8617  -0.2814   0.4062   1.1527   3.4414   3.7891   3.8021
     5.0093

          k = 0.1000 0.2887 0.0000 ( 46679 PWs)   bands (ev):

   -53.9156 -30.0244 -29.9727 -29.9346 -11.7191 -11.1253  -2.9199  -2.2428
    -1.6594  -1.0011  -0.2365   0.3187   1.0364   3.4098   3.7806   3.9201
     5.1507

          k = 0.1000 0.3272 0.0000 ( 46712 PWs)   bands (ev):

   -53.9136 -30.0462 -29.9676 -29.9415 -11.5844 -11.0643  -2.9312  -2.3315
    -1.9201  -1.1014  -0.2152   0.2136   0.9574   3.4126   3.7916   4.0718
     5.2653

          k = 0.1000 0.3657 0.0000 ( 46706 PWs)   bands (ev):

   -53.9117 -30.0670 -29.9627 -29.9480 -11.4504 -11.0038  -3.0555  -2.3112
    -2.1731  -1.1732  -0.2143   0.1030   0.9274   3.4498   3.8132   4.2429
     5.3474

          k = 0.1000 0.4041 0.0000 ( 46686 PWs)   bands (ev):

   -53.9100 -30.0858 -29.9582 -29.9540 -11.3233 -10.9468  -3.2222  -2.4030
    -2.2556  -1.2238  -0.2213  -0.0032   0.9436   3.5125   3.8407   4.4206
     5.3930

          k = 0.1000 0.4426 0.0000 ( 46689 PWs)   bands (ev):

   -53.9086 -30.1019 -29.9591 -29.9544 -11.2100 -10.8964  -3.3831  -2.5991
    -2.2098  -1.2582  -0.2244  -0.0970   0.9941   3.5783   3.8803   4.5948
     5.4008

          k = 0.1000 0.4811 0.0000 ( 46713 PWs)   bands (ev):

   -53.9074 -30.1146 -29.9631 -29.9514 -11.1174 -10.8553  -3.5168  -2.7532
    -2.1841  -1.2801  -0.2202  -0.1727   1.0619   3.6177   3.9443   4.7576
     5.3727

          k = 0.1000 0.5196 0.0000 ( 46711 PWs)   bands (ev):

   -53.9066 -30.1233 -29.9659 -29.9493 -11.0515 -10.8263  -3.6118  -2.8593
    -2.1739  -1.2927  -0.2258  -0.2128   1.1264   3.6252   4.0206   4.9012
     5.3165

          k = 0.1000 0.5581 0.0000 ( 46720 PWs)   bands (ev):

   -53.9062 -30.1278 -29.9674 -29.9482 -11.0172 -10.8113  -3.6611  -2.9134
    -2.1714  -1.2984  -0.2532  -0.2076   1.1659   3.6209   4.0728   5.0060
     5.2543

          k = 0.1333 0.2309 0.0000 ( 46687 PWs)   bands (ev):

   -53.9176 -30.0000 -29.9782 -29.9281 -11.8584 -11.1885  -3.0118  -2.0314
    -1.3565  -0.9146  -0.3055   0.4506   1.1684   3.4281   3.7614   3.7976
     5.0145

          k = 0.1333 0.2694 0.0000 ( 46695 PWs)   bands (ev):

   -53.9158 -30.0197 -29.9734 -29.9357 -11.7364 -11.1329  -2.9120  -2.2112
    -1.5663  -1.0940  -0.2933   0.3985   1.0649   3.3775   3.7972   3.8386
     5.1634

          k = 0.1333 0.3079 0.0000 ( 46700 PWs)   bands (ev):

   -53.9139 -30.0395 -29.9684 -29.9435 -11.6074 -11.0741  -2.8827  -2.3164
    -1.8183  -1.2060  -0.3138   0.3140   0.9933   3.3654   3.8128   3.9572
     5.2858

          k = 0.1333 0.3464 0.0000 ( 46689 PWs)   bands (ev):

   -53.9121 -30.0588 -29.9636 -29.9513 -11.4763 -11.0146  -2.9637  -2.3124
    -2.0791  -1.2732  -0.3618   0.2083   0.9644   3.3975   3.8335   4.1057
     5.3752

          k = 0.1333 0.3849 0.0000 ( 46688 PWs)   bands (ev):

   -53.9104 -30.0767 -29.9591 -29.9586 -11.3491 -10.9570  -3.1056  -2.3246
    -2.2545  -1.3120  -0.4204   0.0938   0.9776   3.4673   3.8529   4.2711
     5.4278

          k = 0.1333 0.4234 0.0000 ( 46695 PWs)   bands (ev):

   -53.9088 -30.0924 -29.9651 -29.9551 -11.2321 -10.9043  -3.2542  -2.5404
    -2.1991  -1.3313  -0.4712  -0.0186   1.0252   3.5508   3.8780   4.4414
     5.4420

          k = 0.1333 0.4619 0.0000 ( 46693 PWs)   bands (ev):

   -53.9076 -30.1054 -29.9704 -29.9517 -11.1320 -10.8594  -3.3852  -2.7172
    -2.1653  -1.3372  -0.5047  -0.1189   1.0953   3.6035   3.9355   4.6068
     5.4202

          k = 0.1333 0.5004 0.0000 ( 46711 PWs)   bands (ev):

   -53.9066 -30.1150 -29.9745 -29.9493 -11.0550 -10.8250  -3.4863  -2.8482
    -2.1518  -1.3354  -0.5216  -0.1986   1.1709   3.6040   4.0306   4.7578
     5.3694

          k = 0.1333 0.5389 0.0000 ( 46726 PWs)   bands (ev):

   -53.9060 -30.1210 -29.9769 -29.9477 -11.0064 -10.8034  -3.5499  -2.9288
    -2.1495  -1.3313  -0.5281  -0.2501   1.2305   3.5829   4.1181   4.8791
     5.3064

          k = 0.1333 0.5774 0.0000 ( 46720 PWs)   bands (ev):

   -53.9058 -30.1230 -29.9778 -29.9472 -10.9898 -10.7960  -3.5716  -2.9559
    -2.1498  -1.3294  -0.5295  -0.2680   1.2533   3.5720   4.1531   4.9322
     5.2724

          k = 0.1667 0.2887 0.0000 ( 46693 PWs)   bands (ev):

   -53.9140 -30.0371 -29.9687 -29.9444 -11.6151 -11.0774  -2.8664  -2.3092
    -1.7728  -1.2537  -0.3498   0.3512   1.0056   3.3488   3.8198   3.9149
     5.2939

          k = 0.1667 0.3272 0.0000 ( 46669 PWs)   bands (ev):

   -53.9123 -30.0541 -29.9640 -29.9535 -11.4895 -11.0200  -2.9115  -2.3114
    -2.0171  -1.3418  -0.4453   0.2696   0.9830   3.3688   3.8442   4.0270
     5.3929

          k = 0.1667 0.3657 0.0000 ( 46670 PWs)   bands (ev):

   -53.9106 -30.0701 -29.9624 -29.9596 -11.3650 -10.9632  -3.0201  -2.2642
    -2.2518  -1.3844  -0.5606   0.1645   0.9968   3.4351   3.8627   4.1645
     5.4568

          k = 0.1667 0.4041 0.0000 ( 46683 PWs)   bands (ev):

   -53.9090 -30.0844 -29.9707 -29.9555 -11.2476 -10.9097  -3.1434  -2.4911
    -2.1863  -1.3985  -0.6716   0.0482   1.0428   3.5249   3.8812   4.3146
     5.4854

          k = 0.1667 0.4426 0.0000 ( 46707 PWs)   bands (ev):

   -53.9077 -30.0965 -29.9779 -29.9520 -11.1433 -10.8623  -3.2569  -2.6847
    -2.1419  -1.3940  -0.7600  -0.0668   1.1140   3.5847   3.9342   4.4650
     5.4815

          k = 0.1667 0.4811 0.0000 ( 46702 PWs)   bands (ev):

   -53.9066 -30.1060 -29.9837 -29.9493 -11.0584 -10.8238  -3.3493  -2.8366
    -2.1234  -1.3789  -0.8187  -0.1685   1.1985   3.5757   4.0446   4.6038
     5.4522

          k = 0.1667 0.5196 0.0000 ( 46695 PWs)   bands (ev):

   -53.9059 -30.1126 -29.9877 -29.9474 -10.9982 -10.7966  -3.4141  -2.9411
    -2.1223  -1.3615  -0.8512  -0.2455   1.2770   3.5318   4.1661   4.7170
     5.4106

          k = 0.1667 0.5581 0.0000 ( 46717 PWs)   bands (ev):

   -53.9055 -30.1159 -29.9898 -29.9464 -10.9670 -10.7825  -3.4476  -2.9942
    -2.1258  -1.3500  -0.8649  -0.2874   1.3253   3.4972   4.2435   4.7844
     5.3783

          k = 0.2000 0.3464 0.0000 ( 46651 PWs)   bands (ev):

   -53.9106 -30.0676 -29.9639 -29.9598 -11.3704 -10.9653  -2.9883  -2.2504
    -2.2406  -1.4129  -0.6116   0.1904   1.0030   3.4237   3.8663   4.1260
     5.4678

          k = 0.2000 0.3849 0.0000 ( 46691 PWs)   bands (ev):

   -53.9091 -30.0796 -29.9742 -29.9558 -11.2555 -10.9124  -3.0778  -2.4619
    -2.1768  -1.4390  -0.7866   0.0865   1.0505   3.5096   3.8841   4.2438
     5.5117

          k = 0.2000 0.4234 0.0000 ( 46691 PWs)   bands (ev):

   -53.9077 -30.0898 -29.9838 -29.9522 -11.1504 -10.8640  -3.1598  -2.6614
    -2.1189  -1.4357  -0.9450  -0.0289   1.1229   3.5693   3.9358   4.3674
     5.5284

          k = 0.2000 0.4619 0.0000 ( 46713 PWs)   bands (ev):

   -53.9066 -30.0979 -29.9920 -29.9493 -11.0610 -10.8228  -3.2260  -2.8268
    -2.0902  -1.4145  -1.0677  -0.1424   1.2140   3.5500   4.0573   4.4839
     5.5244

          k = 0.2000 0.5004 0.0000 ( 46727 PWs)   bands (ev):

   -53.9058 -30.1038 -29.9983 -29.9471 -10.9925 -10.7913  -3.2734  -2.9500
    -2.0885  -1.3860  -1.1472  -0.2399   1.3088   3.4824   4.2064   4.5809
     5.5083

          k = 0.2000 0.5389 0.0000 ( 46714 PWs)   bands (ev):

   -53.9053 -30.1074 -30.0022 -29.9457 -10.9495 -10.7714  -3.3014  -3.0260
    -2.0991  -1.3616  -1.1885  -0.3068   1.3836   3.4166   4.3252   4.6464
     5.4912

          k = 0.2000 0.5774 0.0000 ( 46743 PWs)   bands (ev):

   -53.9051 -30.1086 -30.0036 -29.9453 -10.9348 -10.7647  -3.3106  -3.0516
    -2.1050  -1.3519  -1.2009  -0.3309   1.4124   3.3897   4.3706   4.6697
     5.4839

          k = 0.2333 0.4041 0.0000 ( 46703 PWs)   bands (ev):

   -53.9078 -30.0873 -29.9861 -29.9523 -11.1528 -10.8646  -3.1230  -2.6529
    -2.1084  -1.4511  -1.0144  -0.0151   1.1255   3.5635   3.9368   4.3328
     5.5457

          k = 0.2333 0.4426 0.0000 ( 46728 PWs)   bands (ev):

   -53.9066 -30.0929 -29.9971 -29.9493 -11.0624 -10.8223  -3.1503  -2.8211
    -2.0626  -1.4346  -1.2186  -0.1273   1.2208   3.5350   4.0646   4.4193
     5.5653

          k = 0.2333 0.4811 0.0000 ( 46706 PWs)   bands (ev):

   -53.9057 -30.0967 -30.0065 -29.9469 -10.9892 -10.7879  -3.1601  -2.9555
    -2.0499  -1.4022  -1.3747  -0.2351   1.3277   3.4471   4.2325   4.4924
     5.5758

          k = 0.2333 0.5196 0.0000 ( 46718 PWs)   bands (ev):

   -53.9051 -30.0989 -30.0135 -29.9453 -10.9377 -10.7637  -3.1579  -3.0488
    -2.0668  -1.4693  -1.3672  -0.3222   1.4263   3.3493   4.3852   4.5446
     5.5810

          k = 0.2333 0.5581 0.0000 ( 46704 PWs)   bands (ev):

   -53.9048 -30.0998 -30.0172 -29.9444 -10.9110 -10.7511  -3.1530  -3.0966
    -2.0885  -1.5095  -1.3442  -0.3719   1.4878   3.2851   4.4770   4.5717
     5.5830

          k = 0.2667 0.4619 0.0000 ( 46697 PWs)   bands (ev):

   -53.9057 -30.0938 -30.0098 -29.9469 -10.9881 -10.7868  -3.1152  -2.9573
    -2.0280  -1.4670  -1.4078  -0.2332   1.3339   3.4344   4.2415   4.4618
     5.5998

          k = 0.2667 0.5004 0.0000 ( 46735 PWs)   bands (ev):

   -53.9050 -30.0931 -30.0206 -29.9450 -10.9317 -10.7596  -3.0617  -3.0608
    -2.0311  -1.6550  -1.3692  -0.3306   1.4494   3.3110   4.4167   4.4912
     5.6304

          k = 0.2667 0.5389 0.0000 ( 46717 PWs)   bands (ev):

   -53.9046 -30.0917 -30.0283 -29.9439 -10.8964 -10.7426  -3.1252  -3.0079
    -2.0772  -1.7494  -1.3348  -0.4014   1.5414   3.2082   4.5075   4.5468
     5.6519

          k = 0.2667 0.5774 0.0000 ( 46709 PWs)   bands (ev):

   -53.9044 -30.0910 -30.0311 -29.9435 -10.8844 -10.7368  -3.1471  -2.9839
    -2.1082  -1.7719  -1.3209  -0.4277   1.5775   3.1675   4.5127   4.5954
     5.6597

          k = 0.3000 0.5196 0.0000 ( 46707 PWs)   bands (ev):

   -53.9045 -30.0880 -30.0330 -29.9438 -10.8915 -10.7397  -3.1351  -2.9427
    -2.0725  -1.8475  -1.3308  -0.4121   1.5611   3.1798   4.4853   4.5711
     5.6764

          k = 0.3000 0.5581 0.0000 ( 46719 PWs)   bands (ev):

   -53.9043 -30.0837 -30.0410 -29.9431 -10.8709 -10.7294  -3.1735  -2.8425
    -2.1802  -1.8994  -1.3046  -0.4604   1.6318   3.0963   4.4807   4.6603
     5.7026

          k = 0.3333 0.5774 0.0000 ( 46731 PWs)   bands (ev):

   -53.9042 -30.0794 -30.0469 -29.9428 -10.8622 -10.7249  -3.1899  -2.7464
    -2.2797  -1.9259  -1.2920  -0.4826   1.6674   3.0527   4.4710   4.7013
     5.7210

     the Fermi energy is     1.1288 ev

!    total energy              =    -156.02130225 Ry
     estimated scf accuracy    <          1.2E-13 Ry
     smearing contrib. (-TS)   =      -0.00421632 Ry
     internal energy E=F+TS    =    -156.01708592 Ry

     The total energy is F=E-TS. E is the sum of the following terms:
     one-electron contribution =    -449.92593668 Ry
     hartree contribution      =     226.83866150 Ry
     xc contribution           =     -26.77462368 Ry
     ewald contribution        =      93.84481294 Ry

     convergence has been achieved in  16 iterations

     negative rho (up, down):  1.191E-06 0.000E+00

     Forces acting on atoms (cartesian axes, Ry/au):

     atom    1 type  1   force =     0.00000000   -0.00000000    0.00000000
     atom    2 type  2   force =     0.00000000    0.00000000    0.00000835
     atom    3 type  2   force =     0.00000000    0.00000000   -0.00000835

     Total force =     0.000012     Total SCF correction =     0.000001


     Computing stress (Cartesian axis) and pressure


     negative rho (up, down):  1.191E-06 0.000E+00
          total   stress  (Ry/bohr**3)                   (kbar)     P=        0.02
   0.00000020   0.00000000   0.00000000            0.03        0.00        0.00
   0.00000000   0.00000020   0.00000000            0.00        0.03        0.00
   0.00000000   0.00000000   0.00000001            0.00        0.00        0.00


     Writing all to output data dir ./outdir/0.006.save/
 
     init_run     :      2.73s CPU      2.83s WALL (       1 calls)
     electrons    :     54.48s CPU     55.56s WALL (       1 calls)
     forces       :      0.21s CPU      0.23s WALL (       1 calls)
     stress       :      0.60s CPU      0.61s WALL (       1 calls)

     Called by init_run:
     wfcinit      :      2.45s CPU      2.51s WALL (       1 calls)
     potinit      :      0.03s CPU      0.03s WALL (       1 calls)
     hinit0       :      0.14s CPU      0.18s WALL (       1 calls)

     Called by electrons:
     c_bands      :     44.20s CPU     45.05s WALL (      17 calls)
     sum_band     :      7.24s CPU      7.38s WALL (      17 calls)
     v_of_rho     :      0.13s CPU      0.13s WALL (      17 calls)
     newd         :      0.29s CPU      0.30s WALL (      17 calls)
     mix_rho      :      2.61s CPU      2.63s WALL (      17 calls)

     Called by c_bands:
     init_us_2    :      0.57s CPU      0.60s WALL (    3367 calls)
     init_us_2:cp :      0.56s CPU      0.59s WALL (    3367 calls)
     cegterg      :     41.73s CPU     42.51s WALL (    1547 calls)

     Called by *egterg:
     cdiaghg      :      1.87s CPU      1.95s WALL (    5933 calls)
     h_psi        :     36.59s CPU     37.14s WALL (    6115 calls)
     s_psi        :      0.85s CPU      0.88s WALL (    6115 calls)
     g_psi        :      0.09s CPU      0.10s WALL (    4477 calls)

     Called by h_psi:
     h_psi:calbec :      1.71s CPU      1.78s WALL (    6115 calls)
     vloc_psi     :     33.79s CPU     34.20s WALL (    6115 calls)
     add_vuspsi   :      0.94s CPU      1.00s WALL (    6115 calls)

     General routines
     calbec       :      2.31s CPU      2.44s WALL (    8117 calls)
     fft          :      0.14s CPU      0.14s WALL (     213 calls)
     ffts         :      1.84s CPU      1.85s WALL (    3980 calls)
     fftw         :     37.91s CPU     38.38s WALL (  172455 calls)
 
     Parallel routines
 
     PWSCF        :     59.56s CPU   1m 5.57s WALL

 
   This run was terminated on:   8:57:18  18Jun2022            

=------------------------------------------------------------------------------=
   JOB DONE.
=------------------------------------------------------------------------------=
