
     Program PWSCF v.7.0 starts on 18Jun2022 at  9: 4:16 

     This program is part of the open-source Quantum ESPRESSO suite
     for quantum simulation of materials; please cite
         "P. Giannozzi et al., J. Phys.:Condens. Matter 21 395502 (2009);
         "P. Giannozzi et al., J. Phys.:Condens. Matter 29 465901 (2017);
         "P. Giannozzi et al., J. Chem. Phys. 152 154105 (2020);
          URL http://www.quantum-espresso.org", 
     in publications or presentations arising from this work. More details at
     http://www.quantum-espresso.org/quote

     Parallel version (MPI), running on    64 processors

     MPI processes distributed on     1 nodes
     458524 MiB available memory on the printing compute node when the environment starts
 
     Reading input from ./inputs/0.0005-scf.in
Warning: card &CELL ignored
Warning: card / ignored

     Current dimensions of program PWSCF are:
     Max number of different atomic species (ntypx) = 10
     Max number of k-points (npk) =  40000
     Max angular momentum in pseudopotentials (lmaxx) =  4
     file Nb.pbe-spn-rrkjus_psl.1.0.0.UPF: wavefunction(s)  4S 4P renormalized
     file Se.pbe-mt_fhi.UPF: wavefunction(s)  4f renormalized
     Message from routine setup:
     using ibrav=0 with symmetry is DISCOURAGED, use correct ibrav instead
 
     R & G space division:  proc/nbgrp/npool/nimage =      64
     Subspace diagonalization in iterative solution of the eigenvalue problem:
     a serial algorithm will be used

 
     Parallelization info
     --------------------
     sticks:   dense  smooth     PW     G-vecs:    dense   smooth      PW
     Min          37      37     10                 5821     5821     828
     Max          38      38     11                 5840     5840     847
     Sum        2383    2383    649               373453   373453   53367
 
     Using Slab Decomposition
 


     bravais-lattice index     =            0
     lattice parameter (alat)  =       6.5729  a.u.
     unit-cell volume          =     976.8906 (a.u.)^3
     number of atoms/cell      =            3
     number of atomic types    =            2
     number of electrons       =        25.00
     number of Kohn-Sham states=           17
     kinetic-energy cutoff     =     200.0000  Ry
     charge density cutoff     =     800.0000  Ry
     scf convergence threshold =      1.0E-12
     mixing beta               =       0.7000
     number of iterations used =            8  local-TF  mixing
     Exchange-correlation= PBE
                           (   1   4   3   4   0   0   0)

     celldm(1)=   6.572909  celldm(2)=   0.000000  celldm(3)=   0.000000
     celldm(4)=   0.000000  celldm(5)=   0.000000  celldm(6)=   0.000000

     crystal axes: (cart. coord. in units of alat)
               a(1) = (   1.000000   0.000000   0.000000 )  
               a(2) = (  -0.500000   0.866025   0.000000 )  
               a(3) = (   0.000000   0.000000   3.972304 )  

     reciprocal axes: (cart. coord. in units 2 pi/alat)
               b(1) = (  1.000000  0.577350  0.000000 )  
               b(2) = (  0.000000  1.154701  0.000000 )  
               b(3) = (  0.000000  0.000000  0.251743 )  


     PseudoPot. # 1 for Nb read from file:
     ./PP/Nb.pbe-spn-rrkjus_psl.1.0.0.UPF
     MD5 check sum: 6ee677a9f002bd3e3657f443f129faad
     Pseudo is Ultrasoft + core correction, Zval = 13.0
     Generated using &quot;atomic&quot; code by A. Dal Corso  v.6.2.2
     Using radial grid of 1227 points,  6 beta functions with: 
                l(1) =   0
                l(2) =   0
                l(3) =   1
                l(4) =   1
                l(5) =   2
                l(6) =   2
     Q(r) pseudized with 0 coefficients 


     PseudoPot. # 2 for Se read from file:
     ./PP/Se.pbe-mt_fhi.UPF
     MD5 check sum: 761aa2365a2a775fd78ad90d13f3567a
     Pseudo is Norm-conserving, Zval =  6.0
     Generated using FHI98PP, converted with fhi2upf.x v.5.0.2
     Using radial grid of  533 points,  3 beta functions with: 
                l(1) =   0
                l(2) =   1
                l(3) =   3

     atomic species   valence    mass     pseudopotential
        Nb            13.00    92.90000     Nb( 1.00)
        Se             6.00    78.96000     Se( 1.00)

     12 Sym. Ops. (no inversion) found



   Cartesian axes

     site n.     atom                  positions (alat units)
         1           Nb  tau(   1) = (   0.0000000   0.0000000   1.9861520  )
         2           Se  tau(   2) = (  -0.0000000   0.5773503   1.5032315  )
         3           Se  tau(   3) = (  -0.0000000   0.5773503   2.4690726  )

     number of k points=    91  Fermi-Dirac smearing, width (Ry)=  0.0005
                       cart. coord. in units 2pi/alat
        k(    1) = (   0.0000000   0.0000000   0.0000000), wk =   0.0022222
        k(    2) = (   0.0000000   0.0384900   0.0000000), wk =   0.0133333
        k(    3) = (   0.0000000   0.0769800   0.0000000), wk =   0.0133333
        k(    4) = (   0.0000000   0.1154701   0.0000000), wk =   0.0133333
        k(    5) = (   0.0000000   0.1539601   0.0000000), wk =   0.0133333
        k(    6) = (   0.0000000   0.1924501   0.0000000), wk =   0.0133333
        k(    7) = (   0.0000000   0.2309401   0.0000000), wk =   0.0133333
        k(    8) = (   0.0000000   0.2694301   0.0000000), wk =   0.0133333
        k(    9) = (   0.0000000   0.3079201   0.0000000), wk =   0.0133333
        k(   10) = (   0.0000000   0.3464102   0.0000000), wk =   0.0133333
        k(   11) = (   0.0000000   0.3849002   0.0000000), wk =   0.0133333
        k(   12) = (   0.0000000   0.4233902   0.0000000), wk =   0.0133333
        k(   13) = (   0.0000000   0.4618802   0.0000000), wk =   0.0133333
        k(   14) = (   0.0000000   0.5003702   0.0000000), wk =   0.0133333
        k(   15) = (   0.0000000   0.5388603   0.0000000), wk =   0.0133333
        k(   16) = (   0.0000000  -0.5773503   0.0000000), wk =   0.0066667
        k(   17) = (   0.0333333   0.0577350   0.0000000), wk =   0.0133333
        k(   18) = (   0.0333333   0.0962250   0.0000000), wk =   0.0266667
        k(   19) = (   0.0333333   0.1347151   0.0000000), wk =   0.0266667
        k(   20) = (   0.0333333   0.1732051   0.0000000), wk =   0.0266667
        k(   21) = (   0.0333333   0.2116951   0.0000000), wk =   0.0266667
        k(   22) = (   0.0333333   0.2501851   0.0000000), wk =   0.0266667
        k(   23) = (   0.0333333   0.2886751   0.0000000), wk =   0.0266667
        k(   24) = (   0.0333333   0.3271652   0.0000000), wk =   0.0266667
        k(   25) = (   0.0333333   0.3656552   0.0000000), wk =   0.0266667
        k(   26) = (   0.0333333   0.4041452   0.0000000), wk =   0.0266667
        k(   27) = (   0.0333333   0.4426352   0.0000000), wk =   0.0266667
        k(   28) = (   0.0333333   0.4811252   0.0000000), wk =   0.0266667
        k(   29) = (   0.0333333   0.5196152   0.0000000), wk =   0.0266667
        k(   30) = (   0.0333333   0.5581053   0.0000000), wk =   0.0266667
        k(   31) = (   0.0666667   0.1154701   0.0000000), wk =   0.0133333
        k(   32) = (   0.0666667   0.1539601   0.0000000), wk =   0.0266667
        k(   33) = (   0.0666667   0.1924501   0.0000000), wk =   0.0266667
        k(   34) = (   0.0666667   0.2309401   0.0000000), wk =   0.0266667
        k(   35) = (   0.0666667   0.2694301   0.0000000), wk =   0.0266667
        k(   36) = (   0.0666667   0.3079201   0.0000000), wk =   0.0266667
        k(   37) = (   0.0666667   0.3464102   0.0000000), wk =   0.0266667
        k(   38) = (   0.0666667   0.3849002   0.0000000), wk =   0.0266667
        k(   39) = (   0.0666667   0.4233902   0.0000000), wk =   0.0266667
        k(   40) = (   0.0666667   0.4618802   0.0000000), wk =   0.0266667
        k(   41) = (   0.0666667   0.5003702   0.0000000), wk =   0.0266667
        k(   42) = (   0.0666667   0.5388603   0.0000000), wk =   0.0266667
        k(   43) = (   0.0666667   0.5773503   0.0000000), wk =   0.0133333
        k(   44) = (   0.1000000   0.1732051   0.0000000), wk =   0.0133333
        k(   45) = (   0.1000000   0.2116951   0.0000000), wk =   0.0266667
        k(   46) = (   0.1000000   0.2501851   0.0000000), wk =   0.0266667
        k(   47) = (   0.1000000   0.2886751   0.0000000), wk =   0.0266667
        k(   48) = (   0.1000000   0.3271652   0.0000000), wk =   0.0266667
        k(   49) = (   0.1000000   0.3656552   0.0000000), wk =   0.0266667
        k(   50) = (   0.1000000   0.4041452   0.0000000), wk =   0.0266667
        k(   51) = (   0.1000000   0.4426352   0.0000000), wk =   0.0266667
        k(   52) = (   0.1000000   0.4811252   0.0000000), wk =   0.0266667
        k(   53) = (   0.1000000   0.5196152   0.0000000), wk =   0.0266667
        k(   54) = (   0.1000000   0.5581053   0.0000000), wk =   0.0266667
        k(   55) = (   0.1333333   0.2309401   0.0000000), wk =   0.0133333
        k(   56) = (   0.1333333   0.2694301   0.0000000), wk =   0.0266667
        k(   57) = (   0.1333333   0.3079201   0.0000000), wk =   0.0266667
        k(   58) = (   0.1333333   0.3464102   0.0000000), wk =   0.0266667
        k(   59) = (   0.1333333   0.3849002   0.0000000), wk =   0.0266667
        k(   60) = (   0.1333333   0.4233902   0.0000000), wk =   0.0266667
        k(   61) = (   0.1333333   0.4618802   0.0000000), wk =   0.0266667
        k(   62) = (   0.1333333   0.5003702   0.0000000), wk =   0.0266667
        k(   63) = (   0.1333333   0.5388603   0.0000000), wk =   0.0266667
        k(   64) = (   0.1333333   0.5773503   0.0000000), wk =   0.0133333
        k(   65) = (   0.1666667   0.2886751   0.0000000), wk =   0.0133333
        k(   66) = (   0.1666667   0.3271652   0.0000000), wk =   0.0266667
        k(   67) = (   0.1666667   0.3656552   0.0000000), wk =   0.0266667
        k(   68) = (   0.1666667   0.4041452   0.0000000), wk =   0.0266667
        k(   69) = (   0.1666667   0.4426352   0.0000000), wk =   0.0266667
        k(   70) = (   0.1666667   0.4811252   0.0000000), wk =   0.0266667
        k(   71) = (   0.1666667   0.5196152   0.0000000), wk =   0.0266667
        k(   72) = (   0.1666667   0.5581053   0.0000000), wk =   0.0266667
        k(   73) = (   0.2000000   0.3464102   0.0000000), wk =   0.0133333
        k(   74) = (   0.2000000   0.3849002   0.0000000), wk =   0.0266667
        k(   75) = (   0.2000000   0.4233902   0.0000000), wk =   0.0266667
        k(   76) = (   0.2000000   0.4618802   0.0000000), wk =   0.0266667
        k(   77) = (   0.2000000   0.5003702   0.0000000), wk =   0.0266667
        k(   78) = (   0.2000000   0.5388603   0.0000000), wk =   0.0266667
        k(   79) = (   0.2000000   0.5773503   0.0000000), wk =   0.0133333
        k(   80) = (   0.2333333   0.4041452   0.0000000), wk =   0.0133333
        k(   81) = (   0.2333333   0.4426352   0.0000000), wk =   0.0266667
        k(   82) = (   0.2333333   0.4811252   0.0000000), wk =   0.0266667
        k(   83) = (   0.2333333   0.5196152   0.0000000), wk =   0.0266667
        k(   84) = (   0.2333333   0.5581053   0.0000000), wk =   0.0266667
        k(   85) = (   0.2666667   0.4618802   0.0000000), wk =   0.0133333
        k(   86) = (   0.2666667   0.5003702   0.0000000), wk =   0.0266667
        k(   87) = (   0.2666667   0.5388603   0.0000000), wk =   0.0266667
        k(   88) = (   0.2666667   0.5773503   0.0000000), wk =   0.0133333
        k(   89) = (   0.3000000   0.5196152   0.0000000), wk =   0.0133333
        k(   90) = (   0.3000000   0.5581053   0.0000000), wk =   0.0266667
        k(   91) = (   0.3333333   0.5773503   0.0000000), wk =   0.0044444

     Dense  grid:   373453 G-vectors     FFT dimensions: (  60,  60, 240)

     Estimated max dynamical RAM per process >      47.84 MB

     Estimated total dynamical RAM >       2.99 GB

     Initial potential from superposition of free atoms

     starting charge      24.9985, renormalised to      25.0000

     negative rho (up, down):  2.469E-03 0.000E+00
     Starting wfcs are   45 randomized atomic wfcs

     total cpu time spent up to now is        3.4 secs

     Self-consistent Calculation

     iteration #  1     ecut=   200.00 Ry     beta= 0.70
     Davidson diagonalization with overlap
     ethr =  1.00E-02,  avg # of iterations =  1.9

     Threshold (ethr) on eigenvalues was too large:
     Diagonalizing with lowered threshold

     Davidson diagonalization with overlap
     ethr =  3.05E-04,  avg # of iterations =  3.4

     negative rho (up, down):  3.006E-06 0.000E+00

     total cpu time spent up to now is        9.5 secs

     total energy              =    -156.02222107 Ry
     estimated scf accuracy    <       0.08748429 Ry

     iteration #  2     ecut=   200.00 Ry     beta= 0.70
     Davidson diagonalization with overlap
     ethr =  3.50E-04,  avg # of iterations =  1.0

     total cpu time spent up to now is       12.1 secs

     total energy              =    -156.01354017 Ry
     estimated scf accuracy    <       0.04094168 Ry

     iteration #  3     ecut=   200.00 Ry     beta= 0.70
     Davidson diagonalization with overlap
     ethr =  1.64E-04,  avg # of iterations =  2.0

     total cpu time spent up to now is       14.9 secs

     total energy              =    -156.01871578 Ry
     estimated scf accuracy    <       0.00452416 Ry

     iteration #  4     ecut=   200.00 Ry     beta= 0.70
     Davidson diagonalization with overlap
     ethr =  1.81E-05,  avg # of iterations =  3.9

     total cpu time spent up to now is       18.2 secs

     total energy              =    -156.01871637 Ry
     estimated scf accuracy    <       0.00195924 Ry

     iteration #  5     ecut=   200.00 Ry     beta= 0.70
     Davidson diagonalization with overlap
     ethr =  7.84E-06,  avg # of iterations =  2.3

     total cpu time spent up to now is       21.9 secs

     total energy              =    -156.01881145 Ry
     estimated scf accuracy    <       0.00073082 Ry

     iteration #  6     ecut=   200.00 Ry     beta= 0.70
     Davidson diagonalization with overlap
     ethr =  2.92E-06,  avg # of iterations =  2.7

     total cpu time spent up to now is       24.8 secs

     total energy              =    -156.01898855 Ry
     estimated scf accuracy    <       0.00024215 Ry

     iteration #  7     ecut=   200.00 Ry     beta= 0.70
     Davidson diagonalization with overlap
     ethr =  9.69E-07,  avg # of iterations =  3.7

     total cpu time spent up to now is       28.2 secs

     total energy              =    -156.01906200 Ry
     estimated scf accuracy    <       0.00006487 Ry

     iteration #  8     ecut=   200.00 Ry     beta= 0.70
     Davidson diagonalization with overlap
     ethr =  2.59E-07,  avg # of iterations =  2.0

     total cpu time spent up to now is       30.8 secs

     total energy              =    -156.01906830 Ry
     estimated scf accuracy    <       0.00001298 Ry

     iteration #  9     ecut=   200.00 Ry     beta= 0.70
     Davidson diagonalization with overlap
     ethr =  5.19E-08,  avg # of iterations =  3.5

     negative rho (up, down):  1.067E-06 0.000E+00

     total cpu time spent up to now is       34.4 secs

     total energy              =    -156.01907259 Ry
     estimated scf accuracy    <       0.00000020 Ry

     iteration # 10     ecut=   200.00 Ry     beta= 0.70
     Davidson diagonalization with overlap
     ethr =  7.88E-10,  avg # of iterations =  4.9

     negative rho (up, down):  1.135E-06 0.000E+00

     total cpu time spent up to now is       38.9 secs

     total energy              =    -156.01907279 Ry
     estimated scf accuracy    <       0.00000013 Ry

     iteration # 11     ecut=   200.00 Ry     beta= 0.70
     Davidson diagonalization with overlap
     ethr =  5.26E-10,  avg # of iterations =  2.0

     negative rho (up, down):  1.249E-06 0.000E+00

     total cpu time spent up to now is       42.0 secs

     total energy              =    -156.01907281 Ry
     estimated scf accuracy    <          8.4E-09 Ry

     iteration # 12     ecut=   200.00 Ry     beta= 0.70
     Davidson diagonalization with overlap
     ethr =  3.35E-11,  avg # of iterations =  4.0

     negative rho (up, down):  1.391E-06 0.000E+00

     total cpu time spent up to now is       46.0 secs

     total energy              =    -156.01907281 Ry
     estimated scf accuracy    <          2.0E-09 Ry

     iteration # 13     ecut=   200.00 Ry     beta= 0.70
     Davidson diagonalization with overlap
     ethr =  7.87E-12,  avg # of iterations =  2.0

     negative rho (up, down):  1.295E-06 0.000E+00

     total cpu time spent up to now is       49.0 secs

     total energy              =    -156.01907281 Ry
     estimated scf accuracy    <          2.1E-10 Ry

     iteration # 14     ecut=   200.00 Ry     beta= 0.70
     Davidson diagonalization with overlap
     ethr =  8.47E-13,  avg # of iterations =  4.4

     negative rho (up, down):  1.285E-06 0.000E+00

     total cpu time spent up to now is       53.0 secs

     total energy              =    -156.01907281 Ry
     estimated scf accuracy    <          1.9E-10 Ry

     iteration # 15     ecut=   200.00 Ry     beta= 0.70
     Davidson diagonalization with overlap
     ethr =  7.69E-13,  avg # of iterations =  2.0

     negative rho (up, down):  1.291E-06 0.000E+00

     total cpu time spent up to now is       55.9 secs

     total energy              =    -156.01907281 Ry
     estimated scf accuracy    <          1.5E-11 Ry

     iteration # 16     ecut=   200.00 Ry     beta= 0.70
     Davidson diagonalization with overlap
     ethr =  1.00E-13,  avg # of iterations =  3.5

     negative rho (up, down):  1.295E-06 0.000E+00

     total cpu time spent up to now is       59.0 secs

     End of self-consistent calculation

          k = 0.0000 0.0000 0.0000 ( 46731 PWs)   bands (ev):

   -53.9197 -29.9936 -29.8927 -29.8927 -12.3872 -11.4269  -3.6623  -0.6892
    -0.6892  -0.2107   0.2749   0.2749   1.7355   4.0669   4.0669   4.2546
     4.2546

          k = 0.0000 0.0385 0.0000 ( 46693 PWs)   bands (ev):

   -53.9194 -29.9930 -29.8953 -29.8933 -12.3748 -11.4213  -3.6456  -0.7323
    -0.6766  -0.2711   0.2499   0.3085   1.7268   4.0331   4.0943   4.1981
     4.2376

          k = 0.0000 0.0770 0.0000 ( 46667 PWs)   bands (ev):

   -53.9188 -29.9913 -29.9032 -29.8950 -12.3381 -11.4046  -3.5961  -0.8562
    -0.6394  -0.4149   0.1783   0.3687   1.6985   3.9501   4.0592   4.1727
     4.1887

          k = 0.0000 0.1155 0.0000 ( 46659 PWs)   bands (ev):

   -53.9178 -29.9886 -29.9159 -29.8979 -12.2781 -11.3773  -3.5161  -1.0466
    -0.5996  -0.5790   0.0687   0.4066   1.6446   3.8603   3.8930   4.1142
     4.2920

          k = 0.0000 0.1540 0.0000 ( 46643 PWs)   bands (ev):

   -53.9164 -29.9850 -29.9328 -29.9017 -12.1963 -11.3401  -3.4097  -1.2846
    -0.8083  -0.4979  -0.0676   0.4006   1.5579   3.7415   3.8057   4.0226
     4.4388

          k = 0.0000 0.1925 0.0000 ( 46659 PWs)   bands (ev):

   -53.9147 -29.9806 -29.9532 -29.9064 -12.0951 -11.2940  -3.2837  -1.5506
    -1.0351  -0.3996  -0.2196   0.3491   1.4359   3.6310   3.8107   3.9236
     4.5995

          k = 0.0000 0.2309 0.0000 ( 46620 PWs)   bands (ev):

   -53.9128 -29.9761 -29.9756 -29.9116 -11.9776 -11.2406  -3.1496  -1.8244
    -1.2767  -0.3776  -0.2886   0.2641   1.2857   3.5722   3.8268   3.8791
     4.7623

          k = 0.0000 0.2694 0.0000 ( 46664 PWs)   bands (ev):

   -53.9108 -30.0005 -29.9703 -29.9172 -11.8475 -11.1817  -3.0290  -2.0807
    -1.5286  -0.5339  -0.1703   0.1633   1.1249   3.5631   3.7404   3.9998
     4.9177

          k = 0.0000 0.3079 0.0000 ( 46640 PWs)   bands (ev):

   -53.9087 -30.0253 -29.9649 -29.9229 -11.7094 -11.1194  -2.9681  -2.2741
    -1.7837  -0.6822  -0.0509   0.0628   0.9766   3.5940   3.6712   4.1553
     5.0587

          k = 0.0000 0.3464 0.0000 ( 46648 PWs)   bands (ev):

   -53.9067 -30.0495 -29.9596 -29.9285 -11.5686 -11.0562  -3.0311  -2.3439
    -2.0328  -0.8180  -0.0273   0.0634   0.8628   3.6233   3.6529   4.3271
     5.1813

          k = 0.0000 0.3849 0.0000 ( 46668 PWs)   bands (ev):

   -53.9048 -30.0720 -29.9546 -29.9337 -11.4315 -10.9951  -3.1949  -2.3163
    -2.2654  -0.9377  -0.1022   0.1667   0.7988   3.5981   3.7290   4.4981
     5.2834

          k = 0.0000 0.4234 0.0000 ( 46658 PWs)   bands (ev):

   -53.9031 -30.0918 -29.9502 -29.9382 -11.3049 -10.9391  -3.3819  -2.4714
    -2.2676  -1.0387  -0.1608   0.2544   0.7885   3.5933   3.8124   4.6534
     5.3647

          k = 0.0000 0.4619 0.0000 ( 46652 PWs)   bands (ev):

   -53.9017 -30.1081 -29.9465 -29.9420 -11.1960 -10.8914  -3.5505  -2.6419
    -2.2307  -1.1191  -0.2038   0.3236   0.8217   3.6032   3.8944   4.7815
     5.4260

          k = 0.0000 0.5004 0.0000 ( 46654 PWs)   bands (ev):

   -53.9006 -30.1203 -29.9449 -29.9438 -11.1120 -10.8549  -3.6816  -2.7692
    -2.2105  -1.1774  -0.2329   0.3729   0.8758   3.6197   3.9659   4.8751
     5.4686

          k = 0.0000 0.5389 0.0000 ( 46650 PWs)   bands (ev):

   -53.9000 -30.1278 -29.9466 -29.9421 -11.0587 -10.8319  -3.7644  -2.8478
    -2.2021  -1.2128  -0.2497   0.4022   0.9235   3.6341   4.0161   4.9314
     5.4935

          k = 0.0000-0.5774 0.0000 ( 46660 PWs)   bands (ev):

   -53.8998 -30.1304 -29.9472 -29.9415 -11.0405 -10.8241  -3.7927  -2.8744
    -2.2000  -1.2246  -0.2551   0.4119   0.9423   3.6398   4.0344   4.9501
     5.5017

          k = 0.0333 0.0577 0.0000 ( 46683 PWs)   bands (ev):

   -53.9190 -29.9919 -29.9006 -29.8945 -12.3503 -11.4102  -3.6125  -0.8155
    -0.6520  -0.3706   0.1974   0.3571   1.7083   3.9734   4.1018   4.1485
     4.2040

          k = 0.0333 0.0962 0.0000 ( 46649 PWs)   bands (ev):

   -53.9182 -29.9897 -29.9108 -29.8968 -12.3020 -11.3881  -3.5477  -0.9718
    -0.6039  -0.5277   0.0959   0.4105   1.6672   3.8843   3.9531   4.1409
     4.2505

          k = 0.0333 0.1347 0.0000 ( 46660 PWs)   bands (ev):

   -53.9170 -29.9865 -29.9255 -29.9003 -12.2310 -11.3559  -3.4543  -1.1845
    -0.7161  -0.5346  -0.0408   0.4332   1.5968   3.7981   3.8091   4.0568
     4.3872

          k = 0.0333 0.1732 0.0000 ( 46656 PWs)   bands (ev):

   -53.9154 -29.9825 -29.9440 -29.9046 -12.1395 -11.3142  -3.3375  -1.4346
    -0.9266  -0.4471  -0.1982   0.4119   1.4921   3.6691   3.7816   3.9621
     4.5444

          k = 0.0333 0.2117 0.0000 ( 46650 PWs)   bands (ev):

   -53.9136 -29.9778 -29.9655 -29.9097 -12.0301 -11.2645  -3.2062  -1.7026
    -1.1558  -0.3626  -0.3459   0.3492   1.3556   3.5838   3.8165   3.8678
     4.7086

          k = 0.0333 0.2502 0.0000 ( 46655 PWs)   bands (ev):

   -53.9117 -29.9890 -29.9727 -29.9153 -11.9062 -11.2082  -3.0758  -1.9670
    -1.4006  -0.5231  -0.2367   0.2583   1.2003   3.5448   3.7848   3.9103
     4.8690

          k = 0.0333 0.2887 0.0000 ( 46666 PWs)   bands (ev):

   -53.9096 -30.0135 -29.9673 -29.9211 -11.7720 -11.1475  -2.9780  -2.1948
    -1.6547  -0.6726  -0.1261   0.1557   1.0479   3.5420   3.7246   4.0486
     5.0168

          k = 0.0333 0.3272 0.0000 ( 46650 PWs)   bands (ev):

   -53.9076 -30.0379 -29.9619 -29.9269 -11.6324 -11.0846  -2.9750  -2.3264
    -1.9091  -0.8072  -0.0212   0.0550   0.9223   3.5554   3.7021   4.2137
     5.1463

          k = 0.0333 0.3657 0.0000 ( 46679 PWs)   bands (ev):

   -53.9056 -30.0610 -29.9568 -29.9324 -11.4932 -11.0223  -3.0990  -2.3335
    -2.1527  -0.9251  -0.0351   0.0717   0.8431   3.5654   3.7280   4.3884
     5.2537

          k = 0.0333 0.4041 0.0000 ( 46672 PWs)   bands (ev):

   -53.9038 -30.0820 -29.9521 -29.9374 -11.3611 -10.9636  -3.2805  -2.3746
    -2.2870  -1.0253  -0.1100   0.1493   0.8188   3.5759   3.7873   4.5574
     5.3369

          k = 0.0333 0.4426 0.0000 ( 46671 PWs)   bands (ev):

   -53.9023 -30.1000 -29.9481 -29.9417 -11.2430 -10.9115  -3.4596  -2.5650
    -2.2423  -1.1069  -0.1685   0.2121   0.8428   3.5932   3.8601   4.7079
     5.3959

          k = 0.0333 0.4811 0.0000 ( 46682 PWs)   bands (ev):

   -53.9011 -30.1142 -29.9451 -29.9449 -11.1461 -10.8692  -3.6094  -2.7154
    -2.2143  -1.1690  -0.2109   0.2612   0.8955   3.6141   3.9336   4.8300
     5.4326

          k = 0.0333 0.5196 0.0000 ( 46680 PWs)   bands (ev):

   -53.9002 -30.1239 -29.9475 -29.9426 -11.0772 -10.8393  -3.7161  -2.8194
    -2.2011  -1.2109  -0.2383   0.2955   0.9519   3.6320   3.9957   4.9162
     5.4515

          k = 0.0333 0.5581 0.0000 ( 46660 PWs)   bands (ev):

   -53.8998 -30.1289 -29.9487 -29.9415 -11.0412 -10.8238  -3.7714  -2.8725
    -2.1966  -1.2320  -0.2516   0.3132   0.9877   3.6419   4.0324   4.9610
     5.4586

          k = 0.0667 0.1155 0.0000 ( 46647 PWs)   bands (ev):

   -53.9172 -29.9870 -29.9229 -29.8999 -12.2427 -11.3612  -3.4693  -1.1489
    -0.6792  -0.5483  -0.0475   0.4554   1.6096   3.8059   3.8205   4.0664
     4.3744

          k = 0.0667 0.1540 0.0000 ( 46654 PWs)   bands (ev):

   -53.9158 -29.9835 -29.9390 -29.9041 -12.1620 -11.3244  -3.3651  -1.3707
    -0.8557  -0.4756  -0.2265   0.4725   1.5209   3.6929   3.7528   3.9783
     4.5274

          k = 0.0667 0.1925 0.0000 ( 46638 PWs)   bands (ev):

   -53.9142 -29.9792 -29.9584 -29.9091 -12.0623 -11.2790  -3.2416  -1.6190
    -1.0550  -0.4165  -0.3906   0.4491   1.4009   3.5908   3.7509   3.8912
     4.6933

          k = 0.0667 0.2309 0.0000 ( 46643 PWs)   bands (ev):

   -53.9123 -29.9802 -29.9743 -29.9148 -11.9464 -11.2263  -3.1103  -1.8746
    -1.2789  -0.5963  -0.2995   0.3867   1.2588   3.5229   3.8083   3.8188
     4.8586

          k = 0.0667 0.2694 0.0000 ( 46641 PWs)   bands (ev):

   -53.9103 -30.0035 -29.9691 -29.9209 -11.8182 -11.1681  -2.9932  -2.1123
    -1.5244  -0.7531  -0.2105   0.2965   1.1134   3.4870   3.7718   3.9184
     5.0126

          k = 0.0667 0.3079 0.0000 ( 46664 PWs)   bands (ev):

   -53.9083 -30.0271 -29.9638 -29.9271 -11.6822 -11.1066  -2.9379  -2.2855
    -1.7811  -0.8837  -0.1320   0.1924   0.9889   3.4775   3.7554   4.0667
     5.1474

          k = 0.0667 0.3464 0.0000 ( 46665 PWs)   bands (ev):

   -53.9063 -30.0501 -29.9586 -29.9332 -11.5437 -11.0443  -3.0058  -2.3365
    -2.0353  -0.9903  -0.0707   0.0868   0.9072   3.4904   3.7669   4.2371
     5.2570

          k = 0.0667 0.3849 0.0000 ( 46667 PWs)   bands (ev):

   -53.9044 -30.0716 -29.9537 -29.9389 -11.4090 -10.9840  -3.1663  -2.2999
    -2.2734  -1.0763  -0.0262  -0.0111   0.8791   3.5226   3.7988   4.4147
     5.3370

          k = 0.0667 0.4234 0.0000 ( 46658 PWs)   bands (ev):

   -53.9028 -30.0904 -29.9494 -29.9439 -11.2847 -10.9288  -3.3454  -2.4840
    -2.2489  -1.1442  -0.0953   0.0082   0.8997   3.5659   3.8457   4.5868
     5.3851

          k = 0.0667 0.4619 0.0000 ( 46670 PWs)   bands (ev):

   -53.9014 -30.1060 -29.9480 -29.9458 -11.1779 -10.8818  -3.5059  -2.6577
    -2.2126  -1.1958  -0.1626   0.0387   0.9524   3.6065   3.9058   4.7437
     5.4014

          k = 0.0667 0.5004 0.0000 ( 46675 PWs)   bands (ev):

   -53.9004 -30.1176 -29.9511 -29.9432 -11.0955 -10.8457  -3.6305  -2.7871
    -2.1938  -1.2322  -0.2112   0.0651   1.0159   3.6325   3.9731   4.8763
     5.3910

          k = 0.0667 0.5389 0.0000 ( 46672 PWs)   bands (ev):

   -53.8998 -30.1247 -29.9530 -29.9415 -11.0433 -10.8230  -3.7092  -2.8669
    -2.1867  -1.2539  -0.2405   0.0832   1.0670   3.6436   4.0294   4.9723
     5.3667

          k = 0.0667 0.5774 0.0000 ( 46668 PWs)   bands (ev):

   -53.8996 -30.1272 -29.9537 -29.9410 -11.0255 -10.8153  -3.7361  -2.8939
    -2.1851  -1.2611  -0.2503   0.0897   1.0867   3.6461   4.0518   5.0099
     5.3527

          k = 0.1000 0.1732 0.0000 ( 46649 PWs)   bands (ev):

   -53.9143 -29.9797 -29.9559 -29.9090 -12.0731 -11.2839  -3.2536  -1.5889
    -1.0120  -0.4489  -0.4075   0.4905   1.4165   3.5937   3.7231   3.8980
     4.6916

          k = 0.1000 0.2117 0.0000 ( 46632 PWs)   bands (ev):

   -53.9126 -29.9754 -29.9752 -29.9149 -11.9668 -11.2355  -3.1283  -1.8223
    -1.1921  -0.6701  -0.3375   0.4711   1.2904   3.5102   3.7410   3.8346
     4.8613

          k = 0.1000 0.2502 0.0000 ( 46641 PWs)   bands (ev):

   -53.9108 -29.9966 -29.9703 -29.9215 -11.8465 -11.1808  -3.0052  -2.0501
    -1.4079  -0.8570  -0.2749   0.4133   1.1580   3.4494   3.7988   3.8123
     5.0220

          k = 0.1000 0.2887 0.0000 ( 46642 PWs)   bands (ev):

   -53.9088 -30.0187 -29.9651 -29.9283 -11.7163 -11.1217  -2.9180  -2.2381
    -1.6563  -0.9968  -0.2298   0.3255   1.0416   3.4178   3.7903   3.9305
     5.1636

          k = 0.1000 0.3272 0.0000 ( 46655 PWs)   bands (ev):

   -53.9068 -30.0406 -29.9600 -29.9352 -11.5812 -11.0605  -2.9296  -2.3265
    -1.9174  -1.0973  -0.2085   0.2202   0.9626   3.4206   3.8015   4.0824
     5.2782

          k = 0.1000 0.3657 0.0000 ( 46666 PWs)   bands (ev):

   -53.9049 -30.0615 -29.9550 -29.9418 -11.4467 -10.9999  -3.0540  -2.3063
    -2.1707  -1.1691  -0.2077   0.1092   0.9326   3.4580   3.8234   4.2537
     5.3603

          k = 0.1000 0.4041 0.0000 ( 46648 PWs)   bands (ev):

   -53.9032 -30.0804 -29.9506 -29.9478 -11.3192 -10.9428  -3.2207  -2.4010
    -2.2511  -1.2197  -0.2148   0.0028   0.9492   3.5211   3.8513   4.4316
     5.4058

          k = 0.1000 0.4426 0.0000 ( 46641 PWs)   bands (ev):

   -53.9018 -30.0966 -29.9530 -29.9467 -11.2056 -10.8921  -3.3817  -2.5974
    -2.2057  -1.2541  -0.2178  -0.0914   0.9999   3.5874   3.8911   4.6059
     5.4133

          k = 0.1000 0.4811 0.0000 ( 46681 PWs)   bands (ev):

   -53.9006 -30.1093 -29.9570 -29.9436 -11.1126 -10.8510  -3.5155  -2.7518
    -2.1803  -1.2760  -0.2135  -0.1674   1.0679   3.6275   3.9552   4.7689
     5.3850

          k = 0.1000 0.5196 0.0000 ( 46667 PWs)   bands (ev):

   -53.8998 -30.1182 -29.9598 -29.9415 -11.0464 -10.8219  -3.6107  -2.8581
    -2.1704  -1.2885  -0.2206  -0.2060   1.1325   3.6355   4.0316   4.9128
     5.3284

          k = 0.1000 0.5581 0.0000 ( 46668 PWs)   bands (ev):

   -53.8994 -30.1227 -29.9613 -29.9404 -11.0121 -10.8068  -3.6600  -2.9123
    -2.1680  -1.2941  -0.2481  -0.2007   1.1722   3.6315   4.0840   5.0178
     5.2658

          k = 0.1333 0.2309 0.0000 ( 46637 PWs)   bands (ev):

   -53.9109 -29.9941 -29.9707 -29.9218 -11.8560 -11.1850  -3.0096  -2.0269
    -1.3530  -0.9100  -0.2990   0.4578   1.1738   3.4360   3.7716   3.8074
     5.0272

          k = 0.1333 0.2694 0.0000 ( 46652 PWs)   bands (ev):

   -53.9090 -30.0139 -29.9658 -29.9294 -11.7337 -11.1293  -2.9101  -2.2065
    -1.5630  -1.0899  -0.2867   0.4056   1.0701   3.3853   3.8070   3.8488
     5.1763

          k = 0.1333 0.3079 0.0000 ( 46654 PWs)   bands (ev):

   -53.9071 -30.0339 -29.9608 -29.9373 -11.6042 -11.0704  -2.8811  -2.3114
    -1.8153  -1.2022  -0.3074   0.3209   0.9985   3.3731   3.8228   3.9676
     5.2987

          k = 0.1333 0.3464 0.0000 ( 46639 PWs)   bands (ev):

   -53.9053 -30.0533 -29.9560 -29.9451 -11.4727 -11.0107  -2.9622  -2.3074
    -2.0765  -1.2695  -0.3556   0.2150   0.9697   3.4054   3.8438   4.1162
     5.3882

          k = 0.1333 0.3849 0.0000 ( 46644 PWs)   bands (ev):

   -53.9035 -30.0712 -29.9524 -29.9514 -11.3451 -10.9530  -3.1040  -2.3224
    -2.2497  -1.3084  -0.4143   0.1001   0.9831   3.4754   3.8637   4.2817
     5.4406

          k = 0.1333 0.4234 0.0000 ( 46647 PWs)   bands (ev):

   -53.9020 -30.0871 -29.9590 -29.9474 -11.2277 -10.9001  -3.2527  -2.5386
    -2.1946  -1.3276  -0.4652  -0.0126   1.0309   3.5595   3.8890   4.4522
     5.4548

          k = 0.1333 0.4619 0.0000 ( 46663 PWs)   bands (ev):

   -53.9007 -30.1001 -29.9644 -29.9440 -11.1273 -10.8551  -3.3838  -2.7157
    -2.1611  -1.3333  -0.4986  -0.1133   1.1012   3.6131   3.9464   4.6177
     5.4327

          k = 0.1333 0.5004 0.0000 ( 46683 PWs)   bands (ev):

   -53.8998 -30.1098 -29.9684 -29.9415 -11.0500 -10.8206  -3.4850  -2.8470
    -2.1480  -1.3314  -0.5154  -0.1933   1.1770   3.6143   4.0415   4.7688
     5.3817

          k = 0.1333 0.5389 0.0000 ( 46685 PWs)   bands (ev):

   -53.8992 -30.1158 -29.9709 -29.9400 -11.0012 -10.7989  -3.5487  -2.9277
    -2.1459  -1.3272  -0.5218  -0.2450   1.2367   3.5936   4.1291   4.8901
     5.3186

          k = 0.1333 0.5774 0.0000 ( 46684 PWs)   bands (ev):

   -53.8990 -30.1178 -29.9718 -29.9395 -10.9845 -10.7915  -3.5704  -2.9549
    -2.1463  -1.3253  -0.5232  -0.2629   1.2595   3.5828   4.1642   4.9433
     5.2845

          k = 0.1667 0.2887 0.0000 ( 46637 PWs)   bands (ev):

   -53.9073 -30.0314 -29.9611 -29.9382 -11.6120 -11.0737  -2.8648  -2.3040
    -1.7697  -1.2502  -0.3434   0.3583   1.0108   3.3564   3.8299   3.9251
     5.3068

          k = 0.1667 0.3272 0.0000 ( 46626 PWs)   bands (ev):

   -53.9055 -30.0485 -29.9564 -29.9473 -11.4860 -11.0162  -2.9100  -2.3061
    -2.0143  -1.3384  -0.4393   0.2765   0.9883   3.3764   3.8547   4.0373
     5.4058

          k = 0.1667 0.3657 0.0000 ( 46624 PWs)   bands (ev):

   -53.9037 -30.0646 -29.9563 -29.9519 -11.3611 -10.9592  -3.0185  -2.2618
    -2.2468  -1.3810  -0.5548   0.1711   1.0023   3.4430   3.8736   4.1749
     5.4698

          k = 0.1667 0.4041 0.0000 ( 46633 PWs)   bands (ev):

   -53.9022 -30.0790 -29.9646 -29.9478 -11.2432 -10.9055  -3.1418  -2.4891
    -2.1815  -1.3950  -0.6660   0.0545   1.0484   3.5332   3.8924   4.3250
     5.4983

          k = 0.1667 0.4426 0.0000 ( 46663 PWs)   bands (ev):

   -53.9008 -30.0912 -29.9719 -29.9443 -11.1386 -10.8580  -3.2554  -2.6832
    -2.1374  -1.3904  -0.7545  -0.0609   1.1198   3.5940   3.9452   4.4755
     5.4944

          k = 0.1667 0.4811 0.0000 ( 46666 PWs)   bands (ev):

   -53.8998 -30.1008 -29.9777 -29.9415 -11.0534 -10.8193  -3.3478  -2.8354
    -2.1193  -1.3751  -0.8132  -0.1629   1.2045   3.5860   4.0554   4.6142
     5.4651

          k = 0.1667 0.5196 0.0000 ( 46648 PWs)   bands (ev):

   -53.8991 -30.1074 -29.9817 -29.9396 -10.9930 -10.7920  -3.4127  -2.9400
    -2.1185  -1.3575  -0.8456  -0.2402   1.2831   3.5425   4.1770   4.7273
     5.4235

          k = 0.1667 0.5581 0.0000 ( 46675 PWs)   bands (ev):

   -53.8987 -30.1107 -29.9838 -29.9386 -10.9616 -10.7779  -3.4462  -2.9933
    -2.1223  -1.3459  -0.8592  -0.2822   1.3315   3.5081   4.2546   4.7946
     5.3913

          k = 0.2000 0.3464 0.0000 ( 46621 PWs)   bands (ev):

   -53.9038 -30.0621 -29.9578 -29.9521 -11.3665 -10.9613  -2.9868  -2.2452
    -2.2382  -1.4096  -0.6060   0.1970   1.0085   3.4314   3.8772   4.1363
     5.4808

          k = 0.2000 0.3849 0.0000 ( 46635 PWs)   bands (ev):

   -53.9023 -30.0742 -29.9682 -29.9481 -11.2512 -10.9082  -3.0762  -2.4599
    -2.1717  -1.4357  -0.7813   0.0929   1.0560   3.5178   3.8954   4.2540
     5.5247

          k = 0.2000 0.4234 0.0000 ( 46654 PWs)   bands (ev):

   -53.9009 -30.0845 -29.9778 -29.9445 -11.1457 -10.8597  -3.1582  -2.6598
    -2.1141  -1.4323  -0.9400  -0.0229   1.1286   3.5784   3.9469   4.3776
     5.5416

          k = 0.2000 0.4619 0.0000 ( 46670 PWs)   bands (ev):

   -53.8998 -30.0926 -29.9860 -29.9415 -11.0560 -10.8184  -3.2244  -2.8255
    -2.0857  -1.4109  -1.0628  -0.1367   1.2198   3.5602   4.0681   4.4940
     5.5377

          k = 0.2000 0.5004 0.0000 ( 46696 PWs)   bands (ev):

   -53.8989 -30.0985 -29.9924 -29.9393 -10.9873 -10.7867  -3.2718  -2.9490
    -2.0845  -1.3822  -1.1422  -0.2344   1.3148   3.4930   4.2172   4.5908
     5.5218

          k = 0.2000 0.5389 0.0000 ( 46667 PWs)   bands (ev):

   -53.8984 -30.1021 -29.9963 -29.9380 -10.9441 -10.7668  -3.2998  -3.0252
    -2.0954  -1.3576  -1.1834  -0.3016   1.3897   3.4274   4.3362   4.6560
     5.5049

          k = 0.2000 0.5774 0.0000 ( 46680 PWs)   bands (ev):

   -53.8982 -30.1033 -29.9977 -29.9375 -10.9293 -10.7601  -3.3090  -3.0509
    -2.1014  -1.3479  -1.1957  -0.3258   1.4186   3.4006   4.3818   4.6792
     5.4976

          k = 0.2333 0.4041 0.0000 ( 46649 PWs)   bands (ev):

   -53.9009 -30.0819 -29.9801 -29.9446 -11.1482 -10.8603  -3.1214  -2.6513
    -2.1034  -1.4477  -1.0096  -0.0090   1.1312   3.5725   3.9479   4.3429
     5.5590

          k = 0.2333 0.4426 0.0000 ( 46679 PWs)   bands (ev):

   -53.8998 -30.0876 -29.9912 -29.9416 -11.0574 -10.8178  -3.1487  -2.8198
    -2.0578  -1.4311  -1.2141  -0.1214   1.2266   3.5451   4.0753   4.4291
     5.5789

          k = 0.2333 0.4811 0.0000 ( 46668 PWs)   bands (ev):

   -53.8989 -30.0913 -30.0007 -29.9392 -10.9840 -10.7834  -3.1584  -2.9545
    -2.0454  -1.3984  -1.3702  -0.2295   1.3336   3.4577   4.2433   4.5019
     5.5897

          k = 0.2333 0.5196 0.0000 ( 46674 PWs)   bands (ev):

   -53.8982 -30.0935 -30.0076 -29.9375 -10.9322 -10.7590  -3.1562  -3.0481
    -2.0628  -1.4646  -1.3632  -0.3170   1.4324   3.3600   4.3963   4.5539
     5.5952

          k = 0.2333 0.5581 0.0000 ( 46650 PWs)   bands (ev):

   -53.8979 -30.0945 -30.0114 -29.9367 -10.9055 -10.7464  -3.1512  -3.0960
    -2.0848  -1.5048  -1.3401  -0.3668   1.4940   3.2959   4.4882   4.5807
     5.5975

          k = 0.2667 0.4619 0.0000 ( 46649 PWs)   bands (ev):

   -53.8989 -30.0885 -30.0039 -29.9391 -10.9829 -10.7822  -3.1135  -2.9564
    -2.0233  -1.4629  -1.4041  -0.2276   1.3399   3.4450   4.2523   4.4712
     5.6139

          k = 0.2667 0.5004 0.0000 ( 46699 PWs)   bands (ev):

   -53.8982 -30.0877 -30.0149 -29.9373 -10.9263 -10.7550  -3.0601  -3.0598
    -2.0268  -1.6509  -1.3653  -0.3254   1.4555   3.3217   4.4277   4.5002
     5.6449

          k = 0.2667 0.5389 0.0000 ( 46673 PWs)   bands (ev):

   -53.8977 -30.0863 -30.0226 -29.9362 -10.8909 -10.7379  -3.1247  -3.0059
    -2.0736  -1.7449  -1.3307  -0.3964   1.5475   3.2189   4.5163   4.5581
     5.6667

          k = 0.2667 0.5774 0.0000 ( 46665 PWs)   bands (ev):

   -53.8976 -30.0856 -30.0254 -29.9358 -10.8788 -10.7321  -3.1466  -2.9819
    -2.1049  -1.7673  -1.3167  -0.4227   1.5837   3.1782   4.5214   4.6068
     5.6746

          k = 0.3000 0.5196 0.0000 ( 46677 PWs)   bands (ev):

   -53.8977 -30.0826 -30.0273 -29.9360 -10.8859 -10.7350  -3.1346  -2.9406
    -2.0689  -1.8432  -1.3267  -0.4071   1.5673   3.1904   4.4940   4.5824
     5.6914

          k = 0.3000 0.5581 0.0000 ( 46689 PWs)   bands (ev):

   -53.8974 -30.0783 -30.0353 -29.9353 -10.8652 -10.7246  -3.1730  -2.8403
    -2.1773  -1.8947  -1.3003  -0.4555   1.6381   3.1070   4.4892   4.6718
     5.7179

          k = 0.3333 0.5774 0.0000 ( 46695 PWs)   bands (ev):

   -53.8973 -30.0739 -30.0413 -29.9350 -10.8565 -10.7201  -3.1896  -2.7439
    -2.2771  -1.9212  -1.2877  -0.4778   1.6736   3.0633   4.4795   4.7129
     5.7364

     the Fermi energy is     1.1162 ev

!    total energy              =    -156.01907281 Ry
     estimated scf accuracy    <          1.1E-14 Ry
     smearing contrib. (-TS)   =      -0.00003798 Ry
     internal energy E=F+TS    =    -156.01903483 Ry

     The total energy is F=E-TS. E is the sum of the following terms:
     one-electron contribution =    -450.52913432 Ry
     hartree contribution      =     227.14513017 Ry
     xc contribution           =     -26.77656627 Ry
     ewald contribution        =      94.14153559 Ry

     convergence has been achieved in  16 iterations

     negative rho (up, down):  1.295E-06 0.000E+00

     Forces acting on atoms (cartesian axes, Ry/au):

     atom    1 type  1   force =    -0.00000000   -0.00000000    0.00000000
     atom    2 type  2   force =     0.00000000   -0.00000000   -0.00030254
     atom    3 type  2   force =     0.00000000    0.00000000    0.00030254

     Total force =     0.000428     Total SCF correction =     0.000000


     Computing stress (Cartesian axis) and pressure


     negative rho (up, down):  1.295E-06 0.000E+00
          total   stress  (Ry/bohr**3)                   (kbar)     P=        0.25
   0.00000155   0.00000000  -0.00000000            0.23        0.00       -0.00
   0.00000000   0.00000155  -0.00000000            0.00        0.23       -0.00
   0.00000000   0.00000000   0.00000203            0.00        0.00        0.30


     Writing all to output data dir ./outdir/0.0005.save/
 
     init_run     :      2.75s CPU      2.82s WALL (       1 calls)
     electrons    :     54.85s CPU     55.71s WALL (       1 calls)
     forces       :      0.22s CPU      0.24s WALL (       1 calls)
     stress       :      0.59s CPU      0.60s WALL (       1 calls)

     Called by init_run:
     wfcinit      :      2.49s CPU      2.51s WALL (       1 calls)
     potinit      :      0.03s CPU      0.03s WALL (       1 calls)
     hinit0       :      0.12s CPU      0.16s WALL (       1 calls)

     Called by electrons:
     c_bands      :     44.46s CPU     45.10s WALL (      17 calls)
     sum_band     :      7.21s CPU      7.34s WALL (      17 calls)
     v_of_rho     :      0.12s CPU      0.13s WALL (      17 calls)
     newd         :      0.29s CPU      0.30s WALL (      17 calls)
     mix_rho      :      2.73s CPU      2.74s WALL (      17 calls)

     Called by c_bands:
     init_us_2    :      0.58s CPU      0.60s WALL (    3367 calls)
     init_us_2:cp :      0.57s CPU      0.60s WALL (    3367 calls)
     cegterg      :     41.96s CPU     42.56s WALL (    1547 calls)

     Called by *egterg:
     cdiaghg      :      1.87s CPU      1.92s WALL (    5936 calls)
     h_psi        :     36.80s CPU     37.19s WALL (    6118 calls)
     s_psi        :      0.84s CPU      0.87s WALL (    6118 calls)
     g_psi        :      0.09s CPU      0.09s WALL (    4480 calls)

     Called by h_psi:
     h_psi:calbec :      1.70s CPU      1.78s WALL (    6118 calls)
     vloc_psi     :     34.03s CPU     34.31s WALL (    6118 calls)
     add_vuspsi   :      0.91s CPU      0.95s WALL (    6118 calls)

     General routines
     calbec       :      2.32s CPU      2.44s WALL (    8120 calls)
     fft          :      0.13s CPU      0.14s WALL (     213 calls)
     ffts         :      1.92s CPU      1.93s WALL (    4206 calls)
     fftw         :     38.15s CPU     38.49s WALL (  169553 calls)
 
     Parallel routines
 
     PWSCF        :   1m 0.85s CPU   1m 7.24s WALL

 
   This run was terminated on:   9: 5:24  18Jun2022            

=------------------------------------------------------------------------------=
   JOB DONE.
=------------------------------------------------------------------------------=
