
     Program PWSCF v.7.0 starts on 18Jun2022 at  8:58:35 

     This program is part of the open-source Quantum ESPRESSO suite
     for quantum simulation of materials; please cite
         "P. Giannozzi et al., J. Phys.:Condens. Matter 21 395502 (2009);
         "P. Giannozzi et al., J. Phys.:Condens. Matter 29 465901 (2017);
         "P. Giannozzi et al., J. Chem. Phys. 152 154105 (2020);
          URL http://www.quantum-espresso.org", 
     in publications or presentations arising from this work. More details at
     http://www.quantum-espresso.org/quote

     Parallel version (MPI), running on    64 processors

     MPI processes distributed on     1 nodes
     460863 MiB available memory on the printing compute node when the environment starts
 
     Reading input from ./inputs/0.005-scf.in
Warning: card &CELL ignored
Warning: card / ignored

     Current dimensions of program PWSCF are:
     Max number of different atomic species (ntypx) = 10
     Max number of k-points (npk) =  40000
     Max angular momentum in pseudopotentials (lmaxx) =  4

     File ./outdir/0.005.update deleted, as requested
     file Nb.pbe-spn-rrkjus_psl.1.0.0.UPF: wavefunction(s)  4S 4P renormalized
     file Se.pbe-mt_fhi.UPF: wavefunction(s)  4f renormalized
     Message from routine setup:
     using ibrav=0 with symmetry is DISCOURAGED, use correct ibrav instead
 
     R & G space division:  proc/nbgrp/npool/nimage =      64
     Subspace diagonalization in iterative solution of the eigenvalue problem:
     a serial algorithm will be used

 
     Parallelization info
     --------------------
     sticks:   dense  smooth     PW     G-vecs:    dense   smooth      PW
     Min          37      37     10                 5835     5835     828
     Max          39      39     11                 5846     5846     847
     Sum        2395    2395    649               373729   373729   53367
 
     Using Slab Decomposition
 


     bravais-lattice index     =            0
     lattice parameter (alat)  =       6.5760  a.u.
     unit-cell volume          =     977.6707 (a.u.)^3
     number of atoms/cell      =            3
     number of atomic types    =            2
     number of electrons       =        25.00
     number of Kohn-Sham states=           17
     kinetic-energy cutoff     =     200.0000  Ry
     charge density cutoff     =     800.0000  Ry
     scf convergence threshold =      1.0E-12
     mixing beta               =       0.7000
     number of iterations used =            8  local-TF  mixing
     Exchange-correlation= PBE
                           (   1   4   3   4   0   0   0)

     celldm(1)=   6.576044  celldm(2)=   0.000000  celldm(3)=   0.000000
     celldm(4)=   0.000000  celldm(5)=   0.000000  celldm(6)=   0.000000

     crystal axes: (cart. coord. in units of alat)
               a(1) = (   1.000000   0.000000   0.000000 )  
               a(2) = (  -0.500000   0.866025   0.000000 )  
               a(3) = (   0.000000   0.000000   3.969794 )  

     reciprocal axes: (cart. coord. in units 2 pi/alat)
               b(1) = (  1.000000  0.577350  0.000000 )  
               b(2) = (  0.000000  1.154701  0.000000 )  
               b(3) = (  0.000000  0.000000  0.251902 )  


     PseudoPot. # 1 for Nb read from file:
     ./PP/Nb.pbe-spn-rrkjus_psl.1.0.0.UPF
     MD5 check sum: 6ee677a9f002bd3e3657f443f129faad
     Pseudo is Ultrasoft + core correction, Zval = 13.0
     Generated using &quot;atomic&quot; code by A. Dal Corso  v.6.2.2
     Using radial grid of 1227 points,  6 beta functions with: 
                l(1) =   0
                l(2) =   0
                l(3) =   1
                l(4) =   1
                l(5) =   2
                l(6) =   2
     Q(r) pseudized with 0 coefficients 


     PseudoPot. # 2 for Se read from file:
     ./PP/Se.pbe-mt_fhi.UPF
     MD5 check sum: 761aa2365a2a775fd78ad90d13f3567a
     Pseudo is Norm-conserving, Zval =  6.0
     Generated using FHI98PP, converted with fhi2upf.x v.5.0.2
     Using radial grid of  533 points,  3 beta functions with: 
                l(1) =   0
                l(2) =   1
                l(3) =   3

     atomic species   valence    mass     pseudopotential
        Nb            13.00    92.90000     Nb( 1.00)
        Se             6.00    78.96000     Se( 1.00)

     12 Sym. Ops. (no inversion) found



   Cartesian axes

     site n.     atom                  positions (alat units)
         1           Nb  tau(   1) = (   0.0000000   0.0000000   1.9848968  )
         2           Se  tau(   2) = (  -0.0000000   0.5773503   1.5021289  )
         3           Se  tau(   3) = (  -0.0000000   0.5773503   2.4676647  )

     number of k points=    91  Fermi-Dirac smearing, width (Ry)=  0.0050
                       cart. coord. in units 2pi/alat
        k(    1) = (   0.0000000   0.0000000   0.0000000), wk =   0.0022222
        k(    2) = (   0.0000000   0.0384900   0.0000000), wk =   0.0133333
        k(    3) = (   0.0000000   0.0769800   0.0000000), wk =   0.0133333
        k(    4) = (   0.0000000   0.1154701   0.0000000), wk =   0.0133333
        k(    5) = (   0.0000000   0.1539601   0.0000000), wk =   0.0133333
        k(    6) = (   0.0000000   0.1924501   0.0000000), wk =   0.0133333
        k(    7) = (   0.0000000   0.2309401   0.0000000), wk =   0.0133333
        k(    8) = (   0.0000000   0.2694301   0.0000000), wk =   0.0133333
        k(    9) = (   0.0000000   0.3079201   0.0000000), wk =   0.0133333
        k(   10) = (   0.0000000   0.3464102   0.0000000), wk =   0.0133333
        k(   11) = (   0.0000000   0.3849002   0.0000000), wk =   0.0133333
        k(   12) = (   0.0000000   0.4233902   0.0000000), wk =   0.0133333
        k(   13) = (   0.0000000   0.4618802   0.0000000), wk =   0.0133333
        k(   14) = (   0.0000000   0.5003702   0.0000000), wk =   0.0133333
        k(   15) = (   0.0000000   0.5388603   0.0000000), wk =   0.0133333
        k(   16) = (   0.0000000  -0.5773503   0.0000000), wk =   0.0066667
        k(   17) = (   0.0333333   0.0577350   0.0000000), wk =   0.0133333
        k(   18) = (   0.0333333   0.0962250   0.0000000), wk =   0.0266667
        k(   19) = (   0.0333333   0.1347151   0.0000000), wk =   0.0266667
        k(   20) = (   0.0333333   0.1732051   0.0000000), wk =   0.0266667
        k(   21) = (   0.0333333   0.2116951   0.0000000), wk =   0.0266667
        k(   22) = (   0.0333333   0.2501851   0.0000000), wk =   0.0266667
        k(   23) = (   0.0333333   0.2886751   0.0000000), wk =   0.0266667
        k(   24) = (   0.0333333   0.3271652   0.0000000), wk =   0.0266667
        k(   25) = (   0.0333333   0.3656552   0.0000000), wk =   0.0266667
        k(   26) = (   0.0333333   0.4041452   0.0000000), wk =   0.0266667
        k(   27) = (   0.0333333   0.4426352   0.0000000), wk =   0.0266667
        k(   28) = (   0.0333333   0.4811252   0.0000000), wk =   0.0266667
        k(   29) = (   0.0333333   0.5196152   0.0000000), wk =   0.0266667
        k(   30) = (   0.0333333   0.5581053   0.0000000), wk =   0.0266667
        k(   31) = (   0.0666667   0.1154701   0.0000000), wk =   0.0133333
        k(   32) = (   0.0666667   0.1539601   0.0000000), wk =   0.0266667
        k(   33) = (   0.0666667   0.1924501   0.0000000), wk =   0.0266667
        k(   34) = (   0.0666667   0.2309401   0.0000000), wk =   0.0266667
        k(   35) = (   0.0666667   0.2694301   0.0000000), wk =   0.0266667
        k(   36) = (   0.0666667   0.3079201   0.0000000), wk =   0.0266667
        k(   37) = (   0.0666667   0.3464102   0.0000000), wk =   0.0266667
        k(   38) = (   0.0666667   0.3849002   0.0000000), wk =   0.0266667
        k(   39) = (   0.0666667   0.4233902   0.0000000), wk =   0.0266667
        k(   40) = (   0.0666667   0.4618802   0.0000000), wk =   0.0266667
        k(   41) = (   0.0666667   0.5003702   0.0000000), wk =   0.0266667
        k(   42) = (   0.0666667   0.5388603   0.0000000), wk =   0.0266667
        k(   43) = (   0.0666667   0.5773503   0.0000000), wk =   0.0133333
        k(   44) = (   0.1000000   0.1732051   0.0000000), wk =   0.0133333
        k(   45) = (   0.1000000   0.2116951   0.0000000), wk =   0.0266667
        k(   46) = (   0.1000000   0.2501851   0.0000000), wk =   0.0266667
        k(   47) = (   0.1000000   0.2886751   0.0000000), wk =   0.0266667
        k(   48) = (   0.1000000   0.3271652   0.0000000), wk =   0.0266667
        k(   49) = (   0.1000000   0.3656552   0.0000000), wk =   0.0266667
        k(   50) = (   0.1000000   0.4041452   0.0000000), wk =   0.0266667
        k(   51) = (   0.1000000   0.4426352   0.0000000), wk =   0.0266667
        k(   52) = (   0.1000000   0.4811252   0.0000000), wk =   0.0266667
        k(   53) = (   0.1000000   0.5196152   0.0000000), wk =   0.0266667
        k(   54) = (   0.1000000   0.5581053   0.0000000), wk =   0.0266667
        k(   55) = (   0.1333333   0.2309401   0.0000000), wk =   0.0133333
        k(   56) = (   0.1333333   0.2694301   0.0000000), wk =   0.0266667
        k(   57) = (   0.1333333   0.3079201   0.0000000), wk =   0.0266667
        k(   58) = (   0.1333333   0.3464102   0.0000000), wk =   0.0266667
        k(   59) = (   0.1333333   0.3849002   0.0000000), wk =   0.0266667
        k(   60) = (   0.1333333   0.4233902   0.0000000), wk =   0.0266667
        k(   61) = (   0.1333333   0.4618802   0.0000000), wk =   0.0266667
        k(   62) = (   0.1333333   0.5003702   0.0000000), wk =   0.0266667
        k(   63) = (   0.1333333   0.5388603   0.0000000), wk =   0.0266667
        k(   64) = (   0.1333333   0.5773503   0.0000000), wk =   0.0133333
        k(   65) = (   0.1666667   0.2886751   0.0000000), wk =   0.0133333
        k(   66) = (   0.1666667   0.3271652   0.0000000), wk =   0.0266667
        k(   67) = (   0.1666667   0.3656552   0.0000000), wk =   0.0266667
        k(   68) = (   0.1666667   0.4041452   0.0000000), wk =   0.0266667
        k(   69) = (   0.1666667   0.4426352   0.0000000), wk =   0.0266667
        k(   70) = (   0.1666667   0.4811252   0.0000000), wk =   0.0266667
        k(   71) = (   0.1666667   0.5196152   0.0000000), wk =   0.0266667
        k(   72) = (   0.1666667   0.5581053   0.0000000), wk =   0.0266667
        k(   73) = (   0.2000000   0.3464102   0.0000000), wk =   0.0133333
        k(   74) = (   0.2000000   0.3849002   0.0000000), wk =   0.0266667
        k(   75) = (   0.2000000   0.4233902   0.0000000), wk =   0.0266667
        k(   76) = (   0.2000000   0.4618802   0.0000000), wk =   0.0266667
        k(   77) = (   0.2000000   0.5003702   0.0000000), wk =   0.0266667
        k(   78) = (   0.2000000   0.5388603   0.0000000), wk =   0.0266667
        k(   79) = (   0.2000000   0.5773503   0.0000000), wk =   0.0133333
        k(   80) = (   0.2333333   0.4041452   0.0000000), wk =   0.0133333
        k(   81) = (   0.2333333   0.4426352   0.0000000), wk =   0.0266667
        k(   82) = (   0.2333333   0.4811252   0.0000000), wk =   0.0266667
        k(   83) = (   0.2333333   0.5196152   0.0000000), wk =   0.0266667
        k(   84) = (   0.2333333   0.5581053   0.0000000), wk =   0.0266667
        k(   85) = (   0.2666667   0.4618802   0.0000000), wk =   0.0133333
        k(   86) = (   0.2666667   0.5003702   0.0000000), wk =   0.0266667
        k(   87) = (   0.2666667   0.5388603   0.0000000), wk =   0.0266667
        k(   88) = (   0.2666667   0.5773503   0.0000000), wk =   0.0133333
        k(   89) = (   0.3000000   0.5196152   0.0000000), wk =   0.0133333
        k(   90) = (   0.3000000   0.5581053   0.0000000), wk =   0.0266667
        k(   91) = (   0.3333333   0.5773503   0.0000000), wk =   0.0044444

     Dense  grid:   373729 G-vectors     FFT dimensions: (  60,  60, 240)

     Estimated max dynamical RAM per process >      47.84 MB

     Estimated total dynamical RAM >       2.99 GB

     Initial potential from superposition of free atoms

     starting charge      24.9985, renormalised to      25.0000

     negative rho (up, down):  2.469E-03 0.000E+00
     Starting wfcs are   45 randomized atomic wfcs

     total cpu time spent up to now is        3.3 secs

     Self-consistent Calculation

     iteration #  1     ecut=   200.00 Ry     beta= 0.70
     Davidson diagonalization with overlap
     ethr =  1.00E-02,  avg # of iterations =  1.9

     Threshold (ethr) on eigenvalues was too large:
     Diagonalizing with lowered threshold

     Davidson diagonalization with overlap
     ethr =  3.04E-04,  avg # of iterations =  3.5

     negative rho (up, down):  2.396E-06 0.000E+00

     total cpu time spent up to now is        9.6 secs

     total energy              =    -156.02371899 Ry
     estimated scf accuracy    <       0.08700271 Ry

     iteration #  2     ecut=   200.00 Ry     beta= 0.70
     Davidson diagonalization with overlap
     ethr =  3.48E-04,  avg # of iterations =  1.0

     total cpu time spent up to now is       12.1 secs

     total energy              =    -156.01514425 Ry
     estimated scf accuracy    <       0.04082933 Ry

     iteration #  3     ecut=   200.00 Ry     beta= 0.70
     Davidson diagonalization with overlap
     ethr =  1.63E-04,  avg # of iterations =  2.0

     total cpu time spent up to now is       14.9 secs

     total energy              =    -156.02024287 Ry
     estimated scf accuracy    <       0.00459608 Ry

     iteration #  4     ecut=   200.00 Ry     beta= 0.70
     Davidson diagonalization with overlap
     ethr =  1.84E-05,  avg # of iterations =  4.0

     total cpu time spent up to now is       18.2 secs

     total energy              =    -156.02030018 Ry
     estimated scf accuracy    <       0.00194455 Ry

     iteration #  5     ecut=   200.00 Ry     beta= 0.70
     Davidson diagonalization with overlap
     ethr =  7.78E-06,  avg # of iterations =  2.1

     total cpu time spent up to now is       21.1 secs

     total energy              =    -156.02038605 Ry
     estimated scf accuracy    <       0.00073944 Ry

     iteration #  6     ecut=   200.00 Ry     beta= 0.70
     Davidson diagonalization with overlap
     ethr =  2.96E-06,  avg # of iterations =  2.5

     total cpu time spent up to now is       24.0 secs

     total energy              =    -156.02055969 Ry
     estimated scf accuracy    <       0.00024819 Ry

     iteration #  7     ecut=   200.00 Ry     beta= 0.70
     Davidson diagonalization with overlap
     ethr =  9.93E-07,  avg # of iterations =  3.8

     total cpu time spent up to now is       27.5 secs

     total energy              =    -156.02063415 Ry
     estimated scf accuracy    <       0.00007216 Ry

     iteration #  8     ecut=   200.00 Ry     beta= 0.70
     Davidson diagonalization with overlap
     ethr =  2.89E-07,  avg # of iterations =  1.9

     negative rho (up, down):  4.628E-08 0.000E+00

     total cpu time spent up to now is       30.2 secs

     total energy              =    -156.02063889 Ry
     estimated scf accuracy    <       0.00001594 Ry

     iteration #  9     ecut=   200.00 Ry     beta= 0.70
     Davidson diagonalization with overlap
     ethr =  6.38E-08,  avg # of iterations =  3.7

     negative rho (up, down):  3.862E-07 0.000E+00

     total cpu time spent up to now is       33.6 secs

     total energy              =    -156.02064428 Ry
     estimated scf accuracy    <       0.00000060 Ry

     iteration # 10     ecut=   200.00 Ry     beta= 0.70
     Davidson diagonalization with overlap
     ethr =  2.39E-09,  avg # of iterations =  4.1

     negative rho (up, down):  1.118E-06 0.000E+00

     total cpu time spent up to now is       37.4 secs

     total energy              =    -156.02064450 Ry
     estimated scf accuracy    <       0.00000013 Ry

     iteration # 11     ecut=   200.00 Ry     beta= 0.70
     Davidson diagonalization with overlap
     ethr =  5.10E-10,  avg # of iterations =  2.4

     negative rho (up, down):  1.216E-06 0.000E+00

     total cpu time spent up to now is       40.7 secs

     total energy              =    -156.02064452 Ry
     estimated scf accuracy    <          1.6E-09 Ry

     iteration # 12     ecut=   200.00 Ry     beta= 0.70
     Davidson diagonalization with overlap
     ethr =  6.39E-12,  avg # of iterations =  5.5

     negative rho (up, down):  1.300E-06 0.000E+00

     total cpu time spent up to now is       45.5 secs

     total energy              =    -156.02064452 Ry
     estimated scf accuracy    <          2.0E-09 Ry

     iteration # 13     ecut=   200.00 Ry     beta= 0.70
     Davidson diagonalization with overlap
     ethr =  6.39E-12,  avg # of iterations =  2.0

     negative rho (up, down):  1.204E-06 0.000E+00

     total cpu time spent up to now is       48.6 secs

     total energy              =    -156.02064452 Ry
     estimated scf accuracy    <          6.0E-11 Ry

     iteration # 14     ecut=   200.00 Ry     beta= 0.70
     Davidson diagonalization with overlap
     ethr =  2.40E-13,  avg # of iterations =  5.0

     negative rho (up, down):  1.207E-06 0.000E+00

     total cpu time spent up to now is       53.3 secs

     total energy              =    -156.02064452 Ry
     estimated scf accuracy    <          9.0E-11 Ry

     iteration # 15     ecut=   200.00 Ry     beta= 0.70
     Davidson diagonalization with overlap
     ethr =  2.40E-13,  avg # of iterations =  2.0

     negative rho (up, down):  1.210E-06 0.000E+00

     total cpu time spent up to now is       56.3 secs

     total energy              =    -156.02064452 Ry
     estimated scf accuracy    <          8.9E-12 Ry

     iteration # 16     ecut=   200.00 Ry     beta= 0.70
     Davidson diagonalization with overlap
     ethr =  1.00E-13,  avg # of iterations =  2.1

     negative rho (up, down):  1.212E-06 0.000E+00

     total cpu time spent up to now is       59.2 secs

     End of self-consistent calculation

          k = 0.0000 0.0000 0.0000 ( 46791 PWs)   bands (ev):

   -53.9261 -30.0005 -29.8989 -29.8989 -12.3881 -11.4294  -3.6636  -0.6942
    -0.6942  -0.2140   0.2680   0.2680   1.7311   4.0570   4.0570   4.2445
     4.2445

          k = 0.0000 0.0385 0.0000 ( 46727 PWs)   bands (ev):

   -53.9259 -29.9999 -29.9016 -29.8995 -12.3758 -11.4238  -3.6469  -0.7373
    -0.6817  -0.2746   0.2431   0.3018   1.7224   4.0233   4.0844   4.1882
     4.2276

          k = 0.0000 0.0770 0.0000 ( 46707 PWs)   bands (ev):

   -53.9253 -29.9982 -29.9094 -29.9013 -12.3392 -11.4072  -3.5975  -0.8611
    -0.6445  -0.4185   0.1716   0.3623   1.6940   3.9404   4.0499   4.1626
     4.1788

          k = 0.0000 0.1155 0.0000 ( 46711 PWs)   bands (ev):

   -53.9242 -29.9955 -29.9220 -29.9042 -12.2793 -11.3799  -3.5176  -1.0513
    -0.6031  -0.5843   0.0623   0.4003   1.6399   3.8508   3.8844   4.1045
     4.2817

          k = 0.0000 0.1540 0.0000 ( 46699 PWs)   bands (ev):

   -53.9228 -29.9919 -29.9388 -29.9080 -12.1977 -11.3427  -3.4114  -1.2892
    -0.8117  -0.5034  -0.0739   0.3946   1.5531   3.7336   3.7963   4.0131
     4.4282

          k = 0.0000 0.1925 0.0000 ( 46691 PWs)   bands (ev):

   -53.9212 -29.9876 -29.9591 -29.9126 -12.0968 -11.2968  -3.2855  -1.5550
    -1.0383  -0.4054  -0.2256   0.3433   1.4310   3.6237   3.8013   3.9143
     4.5888

          k = 0.0000 0.2309 0.0000 ( 46672 PWs)   bands (ev):

   -53.9193 -29.9826 -29.9819 -29.9178 -11.9795 -11.2435  -3.1516  -1.8286
    -1.2797  -0.3834  -0.2947   0.2586   1.2809   3.5653   3.8177   3.8697
     4.7514

          k = 0.0000 0.2694 0.0000 ( 46698 PWs)   bands (ev):

   -53.9173 -30.0062 -29.9774 -29.9233 -11.8498 -11.1847  -3.0310  -2.0849
    -1.5314  -0.5393  -0.1768   0.1582   1.1204   3.5562   3.7316   3.9903
     4.9066

          k = 0.0000 0.3079 0.0000 ( 46694 PWs)   bands (ev):

   -53.9152 -30.0309 -29.9719 -29.9290 -11.7120 -11.1225  -2.9699  -2.2784
    -1.7862  -0.6874  -0.0577   0.0579   0.9723   3.5869   3.6625   4.1456
     5.0475

          k = 0.0000 0.3464 0.0000 ( 46676 PWs)   bands (ev):

   -53.9132 -30.0550 -29.9666 -29.9346 -11.5717 -11.0595  -3.0327  -2.3482
    -2.0350  -0.8230  -0.0319   0.0563   0.8587   3.6146   3.6455   4.3173
     5.1700

          k = 0.0000 0.3849 0.0000 ( 46748 PWs)   bands (ev):

   -53.9113 -30.0773 -29.9617 -29.9397 -11.4350 -10.9986  -3.1964  -2.3203
    -2.2673  -0.9425  -0.1066   0.1594   0.7948   3.5894   3.7210   4.4882
     5.2721

          k = 0.0000 0.4234 0.0000 ( 46706 PWs)   bands (ev):

   -53.9096 -30.0970 -29.9573 -29.9443 -11.3087 -10.9428  -3.3832  -2.4731
    -2.2713  -1.0434  -0.1650   0.2469   0.7844   3.5844   3.8039   4.6435
     5.3534

          k = 0.0000 0.4619 0.0000 ( 46686 PWs)   bands (ev):

   -53.9083 -30.1133 -29.9537 -29.9481 -11.2002 -10.8952  -3.5517  -2.6432
    -2.2342  -1.1236  -0.2080   0.3159   0.8173   3.5942   3.8852   4.7716
     5.4147

          k = 0.0000 0.5004 0.0000 ( 46706 PWs)   bands (ev):

   -53.9072 -30.1254 -29.9510 -29.9509 -11.1164 -10.8588  -3.6826  -2.7704
    -2.2137  -1.1819  -0.2370   0.3651   0.8712   3.6106   3.9560   4.8653
     5.4572

          k = 0.0000 0.5389 0.0000 ( 46706 PWs)   bands (ev):

   -53.9066 -30.1329 -29.9526 -29.9493 -11.0633 -10.8359  -3.7653  -2.8489
    -2.2052  -1.2172  -0.2537   0.3943   0.9188   3.6249   4.0057   4.9217
     5.4822

          k = 0.0000-0.5774 0.0000 ( 46676 PWs)   bands (ev):

   -53.9064 -30.1354 -29.9532 -29.9487 -11.0452 -10.8280  -3.7935  -2.8755
    -2.2030  -1.2290  -0.2591   0.4040   0.9375   3.6305   4.0239   4.9404
     5.4904

          k = 0.0333 0.0577 0.0000 ( 46739 PWs)   bands (ev):

   -53.9255 -29.9988 -29.9068 -29.9007 -12.3513 -11.4127  -3.6139  -0.8205
    -0.6571  -0.3742   0.1906   0.3506   1.7038   3.9637   4.0923   4.1385
     4.1941

          k = 0.0333 0.0962 0.0000 ( 46685 PWs)   bands (ev):

   -53.9246 -29.9966 -29.9169 -29.9031 -12.3031 -11.3907  -3.5492  -0.9766
    -0.6092  -0.5312   0.0894   0.4041   1.6626   3.8748   3.9443   4.1311
     4.2403

          k = 0.0333 0.1347 0.0000 ( 46674 PWs)   bands (ev):

   -53.9234 -29.9935 -29.9316 -29.9065 -12.2323 -11.3585  -3.4559  -1.1892
    -0.7196  -0.5400  -0.0471   0.4270   1.5921   3.7899   3.7997   4.0472
     4.3768

          k = 0.0333 0.1732 0.0000 ( 46700 PWs)   bands (ev):

   -53.9219 -29.9895 -29.9500 -29.9109 -12.1411 -11.3170  -3.3393  -1.4391
    -0.9299  -0.4528  -0.2042   0.4059   1.4873   3.6616   3.7723   3.9528
     4.5337

          k = 0.0333 0.2117 0.0000 ( 46677 PWs)   bands (ev):

   -53.9201 -29.9848 -29.9714 -29.9159 -12.0319 -11.2673  -3.2082  -1.7069
    -1.1590  -0.3683  -0.3519   0.3434   1.3508   3.5767   3.8072   3.8588
     4.6978

          k = 0.0333 0.2502 0.0000 ( 46685 PWs)   bands (ev):

   -53.9182 -29.9948 -29.9797 -29.9214 -11.9084 -11.2112  -3.0779  -1.9712
    -1.4035  -0.5285  -0.2430   0.2528   1.1957   3.5378   3.7760   3.9008
     4.8579

          k = 0.0333 0.2887 0.0000 ( 46706 PWs)   bands (ev):

   -53.9161 -30.0191 -29.9744 -29.9272 -11.7745 -11.1506  -2.9799  -2.1991
    -1.6574  -0.6777  -0.1326   0.1505   1.0435   3.5350   3.7160   4.0390
     5.0057

          k = 0.0333 0.3272 0.0000 ( 46693 PWs)   bands (ev):

   -53.9141 -30.0434 -29.9690 -29.9330 -11.6353 -11.0879  -2.9767  -2.3307
    -1.9115  -0.8121  -0.0280   0.0500   0.9181   3.5478   3.6937   4.2040
     5.1351

          k = 0.0333 0.3657 0.0000 ( 46715 PWs)   bands (ev):

   -53.9121 -30.0664 -29.9639 -29.9385 -11.4965 -11.0257  -3.1005  -2.3377
    -2.1548  -0.9298  -0.0397   0.0647   0.8389   3.5573   3.7197   4.3786
     5.2424

          k = 0.0333 0.4041 0.0000 ( 46709 PWs)   bands (ev):

   -53.9104 -30.0873 -29.9592 -29.9435 -11.3647 -10.9671  -3.2820  -2.3764
    -2.2909  -1.0299  -0.1145   0.1422   0.8145   3.5674   3.7788   4.5475
     5.3256

          k = 0.0333 0.4426 0.0000 ( 46703 PWs)   bands (ev):

   -53.9088 -30.1052 -29.9552 -29.9478 -11.2470 -10.9152  -3.4609  -2.5665
    -2.2459  -1.1114  -0.1728   0.2049   0.8382   3.5845   3.8511   4.6980
     5.3846

          k = 0.0333 0.4811 0.0000 ( 46723 PWs)   bands (ev):

   -53.9076 -30.1193 -29.9520 -29.9512 -11.1504 -10.8730  -3.6105  -2.7167
    -2.2177  -1.1734  -0.2151   0.2539   0.8907   3.6051   3.9240   4.8201
     5.4215

          k = 0.0333 0.5196 0.0000 ( 46713 PWs)   bands (ev):

   -53.9068 -30.1290 -29.9535 -29.9498 -11.0817 -10.8432  -3.7170  -2.8205
    -2.2043  -1.2153  -0.2424   0.2881   0.9469   3.6228   3.9856   4.9063
     5.4404

          k = 0.0333 0.5581 0.0000 ( 46684 PWs)   bands (ev):

   -53.9064 -30.1340 -29.9547 -29.9487 -11.0459 -10.8278  -3.7723  -2.8736
    -2.1997  -1.2364  -0.2557   0.3057   0.9826   3.6326   4.0220   4.9512
     5.4476

          k = 0.0667 0.1155 0.0000 ( 46671 PWs)   bands (ev):

   -53.9236 -29.9940 -29.9290 -29.9062 -12.2440 -11.3638  -3.4709  -1.1535
    -0.6827  -0.5537  -0.0537   0.4490   1.6049   3.7965   3.8123   4.0568
     4.3640

          k = 0.0667 0.1540 0.0000 ( 46681 PWs)   bands (ev):

   -53.9223 -29.9904 -29.9451 -29.9103 -12.1635 -11.3272  -3.3668  -1.3752
    -0.8590  -0.4812  -0.2324   0.4662   1.5160   3.6851   3.7436   3.9690
     4.5168

          k = 0.0667 0.1925 0.0000 ( 46664 PWs)   bands (ev):

   -53.9206 -29.9862 -29.9644 -29.9153 -12.0640 -11.2818  -3.2435  -1.6233
    -1.0583  -0.4219  -0.3964   0.4429   1.3960   3.5836   3.7417   3.8822
     4.6824

          k = 0.0667 0.2309 0.0000 ( 46699 PWs)   bands (ev):

   -53.9188 -29.9861 -29.9813 -29.9210 -11.9484 -11.2293  -3.1123  -1.8789
    -1.2820  -0.6013  -0.3056   0.3808   1.2540   3.5159   3.7991   3.8100
     4.8475

          k = 0.0667 0.2694 0.0000 ( 46683 PWs)   bands (ev):

   -53.9168 -30.0092 -29.9762 -29.9270 -11.8206 -11.1712  -2.9952  -2.1165
    -1.5272  -0.7578  -0.2168   0.2908   1.1088   3.4801   3.7632   3.9090
     5.0015

          k = 0.0667 0.3079 0.0000 ( 46703 PWs)   bands (ev):

   -53.9148 -30.0327 -29.9709 -29.9332 -11.6849 -11.1098  -2.9396  -2.2899
    -1.7837  -0.8881  -0.1385   0.1870   0.9844   3.4704   3.7469   4.0573
     5.1362

          k = 0.0667 0.3464 0.0000 ( 46693 PWs)   bands (ev):

   -53.9128 -30.0556 -29.9657 -29.9393 -11.5469 -11.0477  -3.0075  -2.3409
    -2.0376  -0.9946  -0.0772   0.0817   0.9027   3.4830   3.7582   4.2275
     5.2457

          k = 0.0667 0.3849 0.0000 ( 46713 PWs)   bands (ev):

   -53.9110 -30.0769 -29.9609 -29.9449 -11.4125 -10.9875  -3.1678  -2.3040
    -2.2754  -1.0805  -0.0328  -0.0159   0.8745   3.5148   3.7899   4.4049
     5.3258

          k = 0.0667 0.4234 0.0000 ( 46688 PWs)   bands (ev):

   -53.9094 -30.0957 -29.9566 -29.9499 -11.2885 -10.9325  -3.3468  -2.4857
    -2.2528  -1.1484  -0.0999   0.0017   0.8948   3.5577   3.8365   4.5769
     5.3740

          k = 0.0667 0.4619 0.0000 ( 46708 PWs)   bands (ev):

   -53.9080 -30.1112 -29.9540 -29.9530 -11.1821 -10.8855  -3.5071  -2.6591
    -2.2161  -1.2000  -0.1670   0.0321   0.9473   3.5978   3.8963   4.7337
     5.3905

          k = 0.0667 0.5004 0.0000 ( 46719 PWs)   bands (ev):

   -53.9070 -30.1227 -29.9571 -29.9504 -11.1000 -10.8496  -3.6316  -2.7883
    -2.1971  -1.2364  -0.2155   0.0584   1.0106   3.6235   3.9632   4.8662
     5.3803

          k = 0.0667 0.5389 0.0000 ( 46714 PWs)   bands (ev):

   -53.9064 -30.1298 -29.9590 -29.9487 -11.0480 -10.8270  -3.7101  -2.8680
    -2.1898  -1.2581  -0.2446   0.0764   1.0616   3.6343   4.0192   4.9622
     5.3562

          k = 0.0667 0.5774 0.0000 ( 46726 PWs)   bands (ev):

   -53.9062 -30.1322 -29.9597 -29.9482 -11.0302 -10.8193  -3.7370  -2.8949
    -2.1882  -1.2653  -0.2544   0.0829   1.0812   3.6367   4.0414   4.9997
     5.3423

          k = 0.1000 0.1732 0.0000 ( 46657 PWs)   bands (ev):

   -53.9208 -29.9866 -29.9618 -29.9152 -12.0748 -11.2867  -3.2555  -1.5933
    -1.0152  -0.4543  -0.4133   0.4842   1.4116   3.5864   3.7139   3.8890
     4.6808

          k = 0.1000 0.2117 0.0000 ( 46655 PWs)   bands (ev):

   -53.9191 -29.9822 -29.9812 -29.9211 -11.9687 -11.2384  -3.1304  -1.8265
    -1.1952  -0.6750  -0.3435   0.4649   1.2856   3.5032   3.7319   3.8259
     4.8502

          k = 0.1000 0.2502 0.0000 ( 46676 PWs)   bands (ev):

   -53.9173 -30.0023 -29.9773 -29.9276 -11.8488 -11.1838  -3.0072  -2.0544
    -1.4109  -0.8614  -0.2811   0.4072   1.1533   3.4425   3.7902   3.8032
     5.0109

          k = 0.1000 0.2887 0.0000 ( 46675 PWs)   bands (ev):

   -53.9153 -30.0243 -29.9722 -29.9344 -11.7190 -11.1248  -2.9199  -2.2424
    -1.6591  -1.0008  -0.2361   0.3197   1.0370   3.4109   3.7817   3.9212
     5.1523

          k = 0.1000 0.3272 0.0000 ( 46707 PWs)   bands (ev):

   -53.9134 -30.0461 -29.9671 -29.9413 -11.5842 -11.0638  -2.9313  -2.3310
    -1.9199  -1.1011  -0.2148   0.2146   0.9580   3.4136   3.7927   4.0730
     5.2669

          k = 0.1000 0.3657 0.0000 ( 46704 PWs)   bands (ev):

   -53.9115 -30.0669 -29.9622 -29.9478 -11.4501 -11.0034  -3.0556  -2.3107
    -2.1729  -1.1729  -0.2138   0.1039   0.9279   3.4508   3.8142   4.2442
     5.3490

          k = 0.1000 0.4041 0.0000 ( 46684 PWs)   bands (ev):

   -53.9098 -30.0857 -29.9577 -29.9538 -11.3230 -10.9464  -3.2223  -2.4028
    -2.2551  -1.2235  -0.2208  -0.0022   0.9442   3.5135   3.8418   4.4219
     5.3947

          k = 0.1000 0.4426 0.0000 ( 46684 PWs)   bands (ev):

   -53.9083 -30.1018 -29.9589 -29.9539 -11.2097 -10.8959  -3.3831  -2.5989
    -2.2095  -1.2579  -0.2238  -0.0961   0.9947   3.5793   3.8814   4.5961
     5.4024

          k = 0.1000 0.4811 0.0000 ( 46711 PWs)   bands (ev):

   -53.9072 -30.1145 -29.9630 -29.9508 -11.1170 -10.8549  -3.5167  -2.7531
    -2.1838  -1.2799  -0.2196  -0.1718   1.0625   3.6186   3.9453   4.7590
     5.3743

          k = 0.1000 0.5196 0.0000 ( 46707 PWs)   bands (ev):

   -53.9064 -30.1233 -29.9658 -29.9487 -11.0511 -10.8259  -3.6117  -2.8592
    -2.1737  -1.2925  -0.2249  -0.2122   1.1270   3.6262   4.0216   4.9026
     5.3181

          k = 0.1000 0.5581 0.0000 ( 46714 PWs)   bands (ev):

   -53.9060 -30.1277 -29.9672 -29.9477 -11.0168 -10.8108  -3.6610  -2.9133
    -2.1712  -1.2981  -0.2523  -0.2069   1.1666   3.6218   4.0738   5.0074
     5.2558

          k = 0.1333 0.2309 0.0000 ( 46687 PWs)   bands (ev):

   -53.9174 -29.9999 -29.9777 -29.9280 -11.8583 -11.1880  -3.0117  -2.0312
    -1.3562  -0.9142  -0.3052   0.4516   1.1690   3.4292   3.7625   3.7987
     5.0160

          k = 0.1333 0.2694 0.0000 ( 46687 PWs)   bands (ev):

   -53.9156 -30.0195 -29.9728 -29.9355 -11.7363 -11.1324  -2.9120  -2.2108
    -1.5661  -1.0937  -0.2929   0.3995   1.0654   3.3786   3.7983   3.8397
     5.1650

          k = 0.1333 0.3079 0.0000 ( 46696 PWs)   bands (ev):

   -53.9137 -30.0394 -29.9679 -29.9434 -11.6072 -11.0737  -2.8828  -2.3159
    -1.8181  -1.2057  -0.3134   0.3150   0.9938   3.3664   3.8139   3.9584
     5.2874

          k = 0.1333 0.3464 0.0000 ( 46683 PWs)   bands (ev):

   -53.9118 -30.0587 -29.9631 -29.9511 -11.4760 -11.0141  -2.9638  -2.3119
    -2.0789  -1.2729  -0.3614   0.2093   0.9649   3.3985   3.8345   4.1069
     5.3769

          k = 0.1333 0.3849 0.0000 ( 46681 PWs)   bands (ev):

   -53.9101 -30.0766 -29.9585 -29.9584 -11.3488 -10.9566  -3.1056  -2.3244
    -2.2540  -1.3117  -0.4199   0.0947   0.9781   3.4683   3.8539   4.2723
     5.4294

          k = 0.1333 0.4234 0.0000 ( 46687 PWs)   bands (ev):

   -53.9086 -30.0923 -29.9649 -29.9545 -11.2318 -10.9038  -3.2542  -2.5403
    -2.1986  -1.3310  -0.4707  -0.0176   1.0257   3.5518   3.8790   4.4427
     5.4437

          k = 0.1333 0.4619 0.0000 ( 46689 PWs)   bands (ev):

   -53.9073 -30.1053 -29.9703 -29.9512 -11.1317 -10.8589  -3.3851  -2.7171
    -2.1649  -1.3369  -0.5041  -0.1180   1.0958   3.6046   3.9364   4.6081
     5.4218

          k = 0.1333 0.5004 0.0000 ( 46707 PWs)   bands (ev):

   -53.9064 -30.1150 -29.9743 -29.9487 -11.0546 -10.8246  -3.4862  -2.8481
    -2.1515  -1.3351  -0.5210  -0.1977   1.1715   3.6050   4.0316   4.7592
     5.3710

          k = 0.1333 0.5389 0.0000 ( 46722 PWs)   bands (ev):

   -53.9058 -30.1209 -29.9768 -29.9472 -11.0060 -10.8029  -3.5498  -2.9287
    -2.1492  -1.3310  -0.5274  -0.2493   1.2311   3.5838   4.1191   4.8805
     5.3080

          k = 0.1333 0.5774 0.0000 ( 46716 PWs)   bands (ev):

   -53.9056 -30.1229 -29.9776 -29.9467 -10.9894 -10.7956  -3.5715  -2.9558
    -2.1495  -1.3291  -0.5289  -0.2671   1.2539   3.5729   4.1541   4.9336
     5.2739

          k = 0.1667 0.2887 0.0000 ( 46681 PWs)   bands (ev):

   -53.9138 -30.0370 -29.9682 -29.9442 -11.6149 -11.0770  -2.8665  -2.3086
    -1.7726  -1.2534  -0.3494   0.3522   1.0061   3.3498   3.8209   3.9160
     5.2955

          k = 0.1667 0.3272 0.0000 ( 46667 PWs)   bands (ev):

   -53.9120 -30.0540 -29.9635 -29.9533 -11.4893 -11.0196  -2.9116  -2.3108
    -2.0169  -1.3415  -0.4449   0.2707   0.9835   3.3698   3.8453   4.0282
     5.3945

          k = 0.1667 0.3657 0.0000 ( 46665 PWs)   bands (ev):

   -53.9103 -30.0700 -29.9622 -29.9591 -11.3648 -10.9628  -3.0201  -2.2640
    -2.2513  -1.3840  -0.5601   0.1655   0.9973   3.4362   3.8637   4.1657
     5.4585

          k = 0.1667 0.4041 0.0000 ( 46679 PWs)   bands (ev):

   -53.9088 -30.0843 -29.9705 -29.9550 -11.2472 -10.9092  -3.1434  -2.4910
    -2.1858  -1.3981  -0.6711   0.0492   1.0432   3.5259   3.8822   4.3158
     5.4871

          k = 0.1667 0.4426 0.0000 ( 46705 PWs)   bands (ev):

   -53.9074 -30.0964 -29.9778 -29.9515 -11.1429 -10.8618  -3.2568  -2.6846
    -2.1415  -1.3936  -0.7594  -0.0658   1.1145   3.5858   3.9351   4.4663
     5.4832

          k = 0.1667 0.4811 0.0000 ( 46702 PWs)   bands (ev):

   -53.9064 -30.1060 -29.9835 -29.9487 -11.0580 -10.8233  -3.3492  -2.8366
    -2.1231  -1.3785  -0.8182  -0.1676   1.1991   3.5768   4.0456   4.6051
     5.4538

          k = 0.1667 0.5196 0.0000 ( 46687 PWs)   bands (ev):

   -53.9056 -30.1125 -29.9876 -29.9468 -10.9978 -10.7961  -3.4141  -2.9410
    -2.1220  -1.3611  -0.8507  -0.2447   1.2776   3.5328   4.1671   4.7183
     5.4122

          k = 0.1667 0.5581 0.0000 ( 46717 PWs)   bands (ev):

   -53.9053 -30.1159 -29.9896 -29.9458 -10.9666 -10.7820  -3.4475  -2.9942
    -2.1256  -1.3496  -0.8643  -0.2865   1.3259   3.4982   4.2446   4.7857
     5.3799

          k = 0.2000 0.3464 0.0000 ( 46647 PWs)   bands (ev):

   -53.9104 -30.0675 -29.9638 -29.9592 -11.3702 -10.9649  -2.9884  -2.2499
    -2.2405  -1.4126  -0.6111   0.1913   1.0035   3.4247   3.8673   4.1272
     5.4695

          k = 0.2000 0.3849 0.0000 ( 46683 PWs)   bands (ev):

   -53.9088 -30.0796 -29.9741 -29.9552 -11.2552 -10.9120  -3.0778  -2.4619
    -2.1763  -1.4386  -0.7861   0.0875   1.0509   3.5107   3.8851   4.2450
     5.5133

          k = 0.2000 0.4234 0.0000 ( 46691 PWs)   bands (ev):

   -53.9075 -30.0897 -29.9836 -29.9517 -11.1501 -10.8635  -3.1598  -2.6614
    -2.1185  -1.4354  -0.9445  -0.0280   1.1234   3.5704   3.9368   4.3686
     5.5301

          k = 0.2000 0.4619 0.0000 ( 46709 PWs)   bands (ev):

   -53.9064 -30.0979 -29.9918 -29.9487 -11.0606 -10.8223  -3.2260  -2.8268
    -2.0898  -1.4141  -1.0672  -0.1415   1.2145   3.5511   4.0583   4.4852
     5.5261

          k = 0.2000 0.5004 0.0000 ( 46719 PWs)   bands (ev):

   -53.9055 -30.1037 -29.9981 -29.9466 -10.9921 -10.7908  -3.2733  -2.9500
    -2.0882  -1.3856  -1.1467  -0.2390   1.3094   3.4833   4.2074   4.5822
     5.5100

          k = 0.2000 0.5389 0.0000 ( 46710 PWs)   bands (ev):

   -53.9050 -30.1073 -30.0021 -29.9452 -10.9491 -10.7710  -3.3013  -3.0260
    -2.0988  -1.3612  -1.1880  -0.3060   1.3841   3.4175   4.3263   4.6477
     5.4928

          k = 0.2000 0.5774 0.0000 ( 46727 PWs)   bands (ev):

   -53.9048 -30.1085 -30.0034 -29.9447 -10.9344 -10.7642  -3.3105  -3.0517
    -2.1047  -1.3515  -1.2004  -0.3300   1.4130   3.3906   4.3718   4.6710
     5.4855

          k = 0.2333 0.4041 0.0000 ( 46687 PWs)   bands (ev):

   -53.9075 -30.0872 -29.9859 -29.9517 -11.1525 -10.8641  -3.1230  -2.6529
    -2.1079  -1.4507  -1.0140  -0.0142   1.1259   3.5646   3.9377   4.3341
     5.5474

          k = 0.2333 0.4426 0.0000 ( 46721 PWs)   bands (ev):

   -53.9064 -30.0928 -29.9970 -29.9487 -11.0620 -10.8218  -3.1503  -2.8211
    -2.0622  -1.4342  -1.2181  -0.1264   1.2213   3.5361   4.0655   4.4206
     5.5670

          k = 0.2333 0.4811 0.0000 ( 46700 PWs)   bands (ev):

   -53.9055 -30.0966 -30.0064 -29.9464 -10.9888 -10.7874  -3.1600  -2.9555
    -2.0495  -1.4017  -1.3743  -0.2342   1.3282   3.4481   4.2336   4.4937
     5.5775

          k = 0.2333 0.5196 0.0000 ( 46716 PWs)   bands (ev):

   -53.9048 -30.0988 -30.0133 -29.9447 -10.9372 -10.7632  -3.1578  -3.0489
    -2.0665  -1.4688  -1.3667  -0.3214   1.4268   3.3502   4.3864   4.5459
     5.5827

          k = 0.2333 0.5581 0.0000 ( 46700 PWs)   bands (ev):

   -53.9045 -30.0997 -30.0170 -29.9439 -10.9106 -10.7506  -3.1528  -3.0966
    -2.0882  -1.5090  -1.3437  -0.3711   1.4884   3.2859   4.4782   4.5730
     5.5847

          k = 0.2667 0.4619 0.0000 ( 46693 PWs)   bands (ev):

   -53.9054 -30.0937 -30.0096 -29.9463 -10.9877 -10.7863  -3.1151  -2.9574
    -2.0276  -1.4666  -1.4074  -0.2323   1.3344   3.4354   4.2426   4.4631
     5.6015

          k = 0.2667 0.5004 0.0000 ( 46731 PWs)   bands (ev):

   -53.9048 -30.0930 -30.0205 -29.9445 -10.9313 -10.7592  -3.0615  -3.0609
    -2.0307  -1.6546  -1.3687  -0.3298   1.4499   3.3120   4.4179   4.4924
     5.6321

          k = 0.2667 0.5389 0.0000 ( 46717 PWs)   bands (ev):

   -53.9043 -30.0916 -30.0282 -29.9434 -10.8960 -10.7421  -3.1253  -3.0077
    -2.0769  -1.7489  -1.3343  -0.4006   1.5419   3.2091   4.5088   4.5480
     5.6536

          k = 0.2667 0.5774 0.0000 ( 46705 PWs)   bands (ev):

   -53.9042 -30.0909 -30.0310 -29.9430 -10.8840 -10.7363  -3.1472  -2.9837
    -2.1079  -1.7715  -1.3203  -0.4269   1.5781   3.1683   4.5140   4.5966
     5.6614

          k = 0.3000 0.5196 0.0000 ( 46707 PWs)   bands (ev):

   -53.9043 -30.0879 -30.0329 -29.9432 -10.8911 -10.7392  -3.1352  -2.9426
    -2.0722  -1.8471  -1.3303  -0.4113   1.5616   3.1806   4.4866   4.5723
     5.6781

          k = 0.3000 0.5581 0.0000 ( 46715 PWs)   bands (ev):

   -53.9040 -30.0836 -30.0409 -29.9426 -10.8704 -10.7289  -3.1736  -2.8424
    -2.1799  -1.8990  -1.3040  -0.4596   1.6324   3.0972   4.4820   4.6616
     5.7044

          k = 0.3333 0.5774 0.0000 ( 46731 PWs)   bands (ev):

   -53.9039 -30.0793 -30.0468 -29.9423 -10.8618 -10.7244  -3.1901  -2.7461
    -2.2794  -1.9255  -1.2914  -0.4818   1.6679   3.0535   4.4723   4.7026
     5.7227

     the Fermi energy is     1.1248 ev

!    total energy              =    -156.02064452 Ry
     estimated scf accuracy    <          9.8E-13 Ry
     smearing contrib. (-TS)   =      -0.00305339 Ry
     internal energy E=F+TS    =    -156.01759113 Ry

     The total energy is F=E-TS. E is the sum of the following terms:
     one-electron contribution =    -449.99907988 Ry
     hartree contribution      =     226.87543538 Ry
     xc contribution           =     -26.77482971 Ry
     ewald contribution        =      93.88088307 Ry

     convergence has been achieved in  16 iterations

     negative rho (up, down):  1.212E-06 0.000E+00

     Forces acting on atoms (cartesian axes, Ry/au):

     atom    1 type  1   force =     0.00000000   -0.00000000    0.00000000
     atom    2 type  2   force =    -0.00000000   -0.00000000   -0.00003397
     atom    3 type  2   force =     0.00000000    0.00000000    0.00003397

     Total force =     0.000048     Total SCF correction =     0.000003


     Computing stress (Cartesian axis) and pressure


     negative rho (up, down):  1.212E-06 0.000E+00
          total   stress  (Ry/bohr**3)                   (kbar)     P=        0.02
   0.00000002   0.00000000   0.00000000            0.00        0.00        0.00
   0.00000000   0.00000002   0.00000000            0.00        0.00        0.00
   0.00000000   0.00000000   0.00000028            0.00        0.00        0.04


     Writing all to output data dir ./outdir/0.005.save/
 
     init_run     :      2.76s CPU      2.84s WALL (       1 calls)
     electrons    :     54.94s CPU     55.91s WALL (       1 calls)
     forces       :      0.21s CPU      0.23s WALL (       1 calls)
     stress       :      0.60s CPU      0.61s WALL (       1 calls)

     Called by init_run:
     wfcinit      :      2.47s CPU      2.48s WALL (       1 calls)
     potinit      :      0.03s CPU      0.03s WALL (       1 calls)
     hinit0       :      0.16s CPU      0.21s WALL (       1 calls)

     Called by electrons:
     c_bands      :     44.52s CPU     45.27s WALL (      17 calls)
     sum_band     :      7.25s CPU      7.39s WALL (      17 calls)
     v_of_rho     :      0.13s CPU      0.13s WALL (      17 calls)
     newd         :      0.29s CPU      0.30s WALL (      17 calls)
     mix_rho      :      2.71s CPU      2.74s WALL (      17 calls)

     Called by c_bands:
     init_us_2    :      0.59s CPU      0.61s WALL (    3367 calls)
     init_us_2:cp :      0.58s CPU      0.60s WALL (    3367 calls)
     cegterg      :     42.03s CPU     42.72s WALL (    1547 calls)

     Called by *egterg:
     cdiaghg      :      1.88s CPU      1.94s WALL (    5950 calls)
     h_psi        :     36.82s CPU     37.31s WALL (    6132 calls)
     s_psi        :      0.85s CPU      0.89s WALL (    6132 calls)
     g_psi        :      0.10s CPU      0.10s WALL (    4494 calls)

     Called by h_psi:
     h_psi:calbec :      1.72s CPU      1.81s WALL (    6132 calls)
     vloc_psi     :     34.03s CPU     34.38s WALL (    6132 calls)
     add_vuspsi   :      0.92s CPU      0.96s WALL (    6132 calls)

     General routines
     calbec       :      2.34s CPU      2.47s WALL (    8134 calls)
     fft          :      0.13s CPU      0.14s WALL (     213 calls)
     ffts         :      1.91s CPU      1.93s WALL (    4190 calls)
     fftw         :     38.15s CPU     38.57s WALL (  172975 calls)
 
     Parallel routines
 
     PWSCF        :   1m 0.82s CPU   1m 6.93s WALL

 
   This run was terminated on:   8:59:42  18Jun2022            

=------------------------------------------------------------------------------=
   JOB DONE.
=------------------------------------------------------------------------------=
