
     Program PWSCF v.7.0 starts on 18Jun2022 at  8:53:47 

     This program is part of the open-source Quantum ESPRESSO suite
     for quantum simulation of materials; please cite
         "P. Giannozzi et al., J. Phys.:Condens. Matter 21 395502 (2009);
         "P. Giannozzi et al., J. Phys.:Condens. Matter 29 465901 (2017);
         "P. Giannozzi et al., J. Chem. Phys. 152 154105 (2020);
          URL http://www.quantum-espresso.org", 
     in publications or presentations arising from this work. More details at
     http://www.quantum-espresso.org/quote

     Parallel version (MPI), running on    64 processors

     MPI processes distributed on     1 nodes
     463761 MiB available memory on the printing compute node when the environment starts
 
     Reading input from ./inputs/0.007-scf.in
Warning: card &CELL ignored
Warning: card / ignored

     Current dimensions of program PWSCF are:
     Max number of different atomic species (ntypx) = 10
     Max number of k-points (npk) =  40000
     Max angular momentum in pseudopotentials (lmaxx) =  4
     file Nb.pbe-spn-rrkjus_psl.1.0.0.UPF: wavefunction(s)  4S 4P renormalized
     file Se.pbe-mt_fhi.UPF: wavefunction(s)  4f renormalized
     Message from routine setup:
     using ibrav=0 with symmetry is DISCOURAGED, use correct ibrav instead
 
     R & G space division:  proc/nbgrp/npool/nimage =      64
     Subspace diagonalization in iterative solution of the eigenvalue problem:
     a serial algorithm will be used

 
     Parallelization info
     --------------------
     sticks:   dense  smooth     PW     G-vecs:    dense   smooth      PW
     Min          37      37     10                 5835     5835     828
     Max          39      39     11                 5848     5848     847
     Sum        2395    2395    649               373801   373801   53367
 
     Using Slab Decomposition
 


     bravais-lattice index     =            0
     lattice parameter (alat)  =       6.5771  a.u.
     unit-cell volume          =     977.9460 (a.u.)^3
     number of atoms/cell      =            3
     number of atomic types    =            2
     number of electrons       =        25.00
     number of Kohn-Sham states=           17
     kinetic-energy cutoff     =     200.0000  Ry
     charge density cutoff     =     800.0000  Ry
     scf convergence threshold =      1.0E-12
     mixing beta               =       0.7000
     number of iterations used =            8  local-TF  mixing
     Exchange-correlation= PBE
                           (   1   4   3   4   0   0   0)

     celldm(1)=   6.577095  celldm(2)=   0.000000  celldm(3)=   0.000000
     celldm(4)=   0.000000  celldm(5)=   0.000000  celldm(6)=   0.000000

     crystal axes: (cart. coord. in units of alat)
               a(1) = (   1.000000   0.000000   0.000000 )  
               a(2) = (  -0.500000   0.866025   0.000000 )  
               a(3) = (   0.000000   0.000000   3.969007 )  

     reciprocal axes: (cart. coord. in units 2 pi/alat)
               b(1) = (  1.000000  0.577350  0.000000 )  
               b(2) = (  0.000000  1.154701  0.000000 )  
               b(3) = (  0.000000  0.000000  0.251952 )  


     PseudoPot. # 1 for Nb read from file:
     ./PP/Nb.pbe-spn-rrkjus_psl.1.0.0.UPF
     MD5 check sum: 6ee677a9f002bd3e3657f443f129faad
     Pseudo is Ultrasoft + core correction, Zval = 13.0
     Generated using &quot;atomic&quot; code by A. Dal Corso  v.6.2.2
     Using radial grid of 1227 points,  6 beta functions with: 
                l(1) =   0
                l(2) =   0
                l(3) =   1
                l(4) =   1
                l(5) =   2
                l(6) =   2
     Q(r) pseudized with 0 coefficients 


     PseudoPot. # 2 for Se read from file:
     ./PP/Se.pbe-mt_fhi.UPF
     MD5 check sum: 761aa2365a2a775fd78ad90d13f3567a
     Pseudo is Norm-conserving, Zval =  6.0
     Generated using FHI98PP, converted with fhi2upf.x v.5.0.2
     Using radial grid of  533 points,  3 beta functions with: 
                l(1) =   0
                l(2) =   1
                l(3) =   3

     atomic species   valence    mass     pseudopotential
        Nb            13.00    92.90000     Nb( 1.00)
        Se             6.00    78.96000     Se( 1.00)

     12 Sym. Ops. (no inversion) found



   Cartesian axes

     site n.     atom                  positions (alat units)
         1           Nb  tau(   1) = (   0.0000000   0.0000000   1.9845037  )
         2           Se  tau(   2) = (  -0.0000000   0.5773503   1.5017536  )
         3           Se  tau(   3) = (  -0.0000000   0.5773503   2.4672539  )

     number of k points=    91  Fermi-Dirac smearing, width (Ry)=  0.0070
                       cart. coord. in units 2pi/alat
        k(    1) = (   0.0000000   0.0000000   0.0000000), wk =   0.0022222
        k(    2) = (   0.0000000   0.0384900   0.0000000), wk =   0.0133333
        k(    3) = (   0.0000000   0.0769800   0.0000000), wk =   0.0133333
        k(    4) = (   0.0000000   0.1154701   0.0000000), wk =   0.0133333
        k(    5) = (   0.0000000   0.1539601   0.0000000), wk =   0.0133333
        k(    6) = (   0.0000000   0.1924501   0.0000000), wk =   0.0133333
        k(    7) = (   0.0000000   0.2309401   0.0000000), wk =   0.0133333
        k(    8) = (   0.0000000   0.2694301   0.0000000), wk =   0.0133333
        k(    9) = (   0.0000000   0.3079201   0.0000000), wk =   0.0133333
        k(   10) = (   0.0000000   0.3464102   0.0000000), wk =   0.0133333
        k(   11) = (   0.0000000   0.3849002   0.0000000), wk =   0.0133333
        k(   12) = (   0.0000000   0.4233902   0.0000000), wk =   0.0133333
        k(   13) = (   0.0000000   0.4618802   0.0000000), wk =   0.0133333
        k(   14) = (   0.0000000   0.5003702   0.0000000), wk =   0.0133333
        k(   15) = (   0.0000000   0.5388603   0.0000000), wk =   0.0133333
        k(   16) = (   0.0000000  -0.5773503   0.0000000), wk =   0.0066667
        k(   17) = (   0.0333333   0.0577350   0.0000000), wk =   0.0133333
        k(   18) = (   0.0333333   0.0962250   0.0000000), wk =   0.0266667
        k(   19) = (   0.0333333   0.1347151   0.0000000), wk =   0.0266667
        k(   20) = (   0.0333333   0.1732051   0.0000000), wk =   0.0266667
        k(   21) = (   0.0333333   0.2116951   0.0000000), wk =   0.0266667
        k(   22) = (   0.0333333   0.2501851   0.0000000), wk =   0.0266667
        k(   23) = (   0.0333333   0.2886751   0.0000000), wk =   0.0266667
        k(   24) = (   0.0333333   0.3271652   0.0000000), wk =   0.0266667
        k(   25) = (   0.0333333   0.3656552   0.0000000), wk =   0.0266667
        k(   26) = (   0.0333333   0.4041452   0.0000000), wk =   0.0266667
        k(   27) = (   0.0333333   0.4426352   0.0000000), wk =   0.0266667
        k(   28) = (   0.0333333   0.4811252   0.0000000), wk =   0.0266667
        k(   29) = (   0.0333333   0.5196152   0.0000000), wk =   0.0266667
        k(   30) = (   0.0333333   0.5581053   0.0000000), wk =   0.0266667
        k(   31) = (   0.0666667   0.1154701   0.0000000), wk =   0.0133333
        k(   32) = (   0.0666667   0.1539601   0.0000000), wk =   0.0266667
        k(   33) = (   0.0666667   0.1924501   0.0000000), wk =   0.0266667
        k(   34) = (   0.0666667   0.2309401   0.0000000), wk =   0.0266667
        k(   35) = (   0.0666667   0.2694301   0.0000000), wk =   0.0266667
        k(   36) = (   0.0666667   0.3079201   0.0000000), wk =   0.0266667
        k(   37) = (   0.0666667   0.3464102   0.0000000), wk =   0.0266667
        k(   38) = (   0.0666667   0.3849002   0.0000000), wk =   0.0266667
        k(   39) = (   0.0666667   0.4233902   0.0000000), wk =   0.0266667
        k(   40) = (   0.0666667   0.4618802   0.0000000), wk =   0.0266667
        k(   41) = (   0.0666667   0.5003702   0.0000000), wk =   0.0266667
        k(   42) = (   0.0666667   0.5388603   0.0000000), wk =   0.0266667
        k(   43) = (   0.0666667   0.5773503   0.0000000), wk =   0.0133333
        k(   44) = (   0.1000000   0.1732051   0.0000000), wk =   0.0133333
        k(   45) = (   0.1000000   0.2116951   0.0000000), wk =   0.0266667
        k(   46) = (   0.1000000   0.2501851   0.0000000), wk =   0.0266667
        k(   47) = (   0.1000000   0.2886751   0.0000000), wk =   0.0266667
        k(   48) = (   0.1000000   0.3271652   0.0000000), wk =   0.0266667
        k(   49) = (   0.1000000   0.3656552   0.0000000), wk =   0.0266667
        k(   50) = (   0.1000000   0.4041452   0.0000000), wk =   0.0266667
        k(   51) = (   0.1000000   0.4426352   0.0000000), wk =   0.0266667
        k(   52) = (   0.1000000   0.4811252   0.0000000), wk =   0.0266667
        k(   53) = (   0.1000000   0.5196152   0.0000000), wk =   0.0266667
        k(   54) = (   0.1000000   0.5581053   0.0000000), wk =   0.0266667
        k(   55) = (   0.1333333   0.2309401   0.0000000), wk =   0.0133333
        k(   56) = (   0.1333333   0.2694301   0.0000000), wk =   0.0266667
        k(   57) = (   0.1333333   0.3079201   0.0000000), wk =   0.0266667
        k(   58) = (   0.1333333   0.3464102   0.0000000), wk =   0.0266667
        k(   59) = (   0.1333333   0.3849002   0.0000000), wk =   0.0266667
        k(   60) = (   0.1333333   0.4233902   0.0000000), wk =   0.0266667
        k(   61) = (   0.1333333   0.4618802   0.0000000), wk =   0.0266667
        k(   62) = (   0.1333333   0.5003702   0.0000000), wk =   0.0266667
        k(   63) = (   0.1333333   0.5388603   0.0000000), wk =   0.0266667
        k(   64) = (   0.1333333   0.5773503   0.0000000), wk =   0.0133333
        k(   65) = (   0.1666667   0.2886751   0.0000000), wk =   0.0133333
        k(   66) = (   0.1666667   0.3271652   0.0000000), wk =   0.0266667
        k(   67) = (   0.1666667   0.3656552   0.0000000), wk =   0.0266667
        k(   68) = (   0.1666667   0.4041452   0.0000000), wk =   0.0266667
        k(   69) = (   0.1666667   0.4426352   0.0000000), wk =   0.0266667
        k(   70) = (   0.1666667   0.4811252   0.0000000), wk =   0.0266667
        k(   71) = (   0.1666667   0.5196152   0.0000000), wk =   0.0266667
        k(   72) = (   0.1666667   0.5581053   0.0000000), wk =   0.0266667
        k(   73) = (   0.2000000   0.3464102   0.0000000), wk =   0.0133333
        k(   74) = (   0.2000000   0.3849002   0.0000000), wk =   0.0266667
        k(   75) = (   0.2000000   0.4233902   0.0000000), wk =   0.0266667
        k(   76) = (   0.2000000   0.4618802   0.0000000), wk =   0.0266667
        k(   77) = (   0.2000000   0.5003702   0.0000000), wk =   0.0266667
        k(   78) = (   0.2000000   0.5388603   0.0000000), wk =   0.0266667
        k(   79) = (   0.2000000   0.5773503   0.0000000), wk =   0.0133333
        k(   80) = (   0.2333333   0.4041452   0.0000000), wk =   0.0133333
        k(   81) = (   0.2333333   0.4426352   0.0000000), wk =   0.0266667
        k(   82) = (   0.2333333   0.4811252   0.0000000), wk =   0.0266667
        k(   83) = (   0.2333333   0.5196152   0.0000000), wk =   0.0266667
        k(   84) = (   0.2333333   0.5581053   0.0000000), wk =   0.0266667
        k(   85) = (   0.2666667   0.4618802   0.0000000), wk =   0.0133333
        k(   86) = (   0.2666667   0.5003702   0.0000000), wk =   0.0266667
        k(   87) = (   0.2666667   0.5388603   0.0000000), wk =   0.0266667
        k(   88) = (   0.2666667   0.5773503   0.0000000), wk =   0.0133333
        k(   89) = (   0.3000000   0.5196152   0.0000000), wk =   0.0133333
        k(   90) = (   0.3000000   0.5581053   0.0000000), wk =   0.0266667
        k(   91) = (   0.3333333   0.5773503   0.0000000), wk =   0.0044444

     Dense  grid:   373801 G-vectors     FFT dimensions: (  60,  60, 240)

     Estimated max dynamical RAM per process >      47.83 MB

     Estimated total dynamical RAM >       2.99 GB

     Initial potential from superposition of free atoms

     starting charge      24.9985, renormalised to      25.0000

     negative rho (up, down):  2.484E-03 0.000E+00
     Starting wfcs are   45 randomized atomic wfcs

     total cpu time spent up to now is        3.4 secs

     Self-consistent Calculation

     iteration #  1     ecut=   200.00 Ry     beta= 0.70
     Davidson diagonalization with overlap
     ethr =  1.00E-02,  avg # of iterations =  1.9

     Threshold (ethr) on eigenvalues was too large:
     Diagonalizing with lowered threshold

     Davidson diagonalization with overlap
     ethr =  3.03E-04,  avg # of iterations =  3.5

     negative rho (up, down):  2.588E-06 0.000E+00

     total cpu time spent up to now is        9.7 secs

     total energy              =    -156.02510281 Ry
     estimated scf accuracy    <       0.08689505 Ry

     iteration #  2     ecut=   200.00 Ry     beta= 0.70
     Davidson diagonalization with overlap
     ethr =  3.48E-04,  avg # of iterations =  1.0

     total cpu time spent up to now is       12.2 secs

     total energy              =    -156.01657574 Ry
     estimated scf accuracy    <       0.04070405 Ry

     iteration #  3     ecut=   200.00 Ry     beta= 0.70
     Davidson diagonalization with overlap
     ethr =  1.63E-04,  avg # of iterations =  2.0

     total cpu time spent up to now is       15.0 secs

     total energy              =    -156.02162479 Ry
     estimated scf accuracy    <       0.00459736 Ry

     iteration #  4     ecut=   200.00 Ry     beta= 0.70
     Davidson diagonalization with overlap
     ethr =  1.84E-05,  avg # of iterations =  3.9

     total cpu time spent up to now is       18.3 secs

     total energy              =    -156.02170122 Ry
     estimated scf accuracy    <       0.00193428 Ry

     iteration #  5     ecut=   200.00 Ry     beta= 0.70
     Davidson diagonalization with overlap
     ethr =  7.74E-06,  avg # of iterations =  2.1

     total cpu time spent up to now is       21.2 secs

     total energy              =    -156.02178641 Ry
     estimated scf accuracy    <       0.00074328 Ry

     iteration #  6     ecut=   200.00 Ry     beta= 0.70
     Davidson diagonalization with overlap
     ethr =  2.97E-06,  avg # of iterations =  2.8

     total cpu time spent up to now is       24.1 secs

     total energy              =    -156.02196332 Ry
     estimated scf accuracy    <       0.00024371 Ry

     iteration #  7     ecut=   200.00 Ry     beta= 0.70
     Davidson diagonalization with overlap
     ethr =  9.75E-07,  avg # of iterations =  3.7

     total cpu time spent up to now is       27.5 secs

     total energy              =    -156.02203593 Ry
     estimated scf accuracy    <       0.00006726 Ry

     iteration #  8     ecut=   200.00 Ry     beta= 0.70
     Davidson diagonalization with overlap
     ethr =  2.69E-07,  avg # of iterations =  1.9

     negative rho (up, down):  5.727E-08 0.000E+00

     total cpu time spent up to now is       30.2 secs

     total energy              =    -156.02204144 Ry
     estimated scf accuracy    <       0.00001403 Ry

     iteration #  9     ecut=   200.00 Ry     beta= 0.70
     Davidson diagonalization with overlap
     ethr =  5.61E-08,  avg # of iterations =  3.7

     negative rho (up, down):  5.060E-07 0.000E+00

     total cpu time spent up to now is       33.7 secs

     total energy              =    -156.02204618 Ry
     estimated scf accuracy    <       0.00000052 Ry

     iteration # 10     ecut=   200.00 Ry     beta= 0.70
     Davidson diagonalization with overlap
     ethr =  2.07E-09,  avg # of iterations =  4.0

     negative rho (up, down):  1.045E-06 0.000E+00

     total cpu time spent up to now is       37.5 secs

     total energy              =    -156.02204638 Ry
     estimated scf accuracy    <       0.00000010 Ry

     iteration # 11     ecut=   200.00 Ry     beta= 0.70
     Davidson diagonalization with overlap
     ethr =  4.17E-10,  avg # of iterations =  2.5

     negative rho (up, down):  1.102E-06 0.000E+00

     total cpu time spent up to now is       40.9 secs

     total energy              =    -156.02204640 Ry
     estimated scf accuracy    <          2.2E-09 Ry

     iteration # 12     ecut=   200.00 Ry     beta= 0.70
     Davidson diagonalization with overlap
     ethr =  8.74E-12,  avg # of iterations =  5.1

     negative rho (up, down):  1.256E-06 0.000E+00

     total cpu time spent up to now is       45.6 secs

     total energy              =    -156.02204640 Ry
     estimated scf accuracy    <          1.9E-09 Ry

     iteration # 13     ecut=   200.00 Ry     beta= 0.70
     Davidson diagonalization with overlap
     ethr =  7.46E-12,  avg # of iterations =  2.0

     negative rho (up, down):  1.146E-06 0.000E+00

     total cpu time spent up to now is       48.7 secs

     total energy              =    -156.02204640 Ry
     estimated scf accuracy    <          5.0E-11 Ry

     iteration # 14     ecut=   200.00 Ry     beta= 0.70
     Davidson diagonalization with overlap
     ethr =  2.02E-13,  avg # of iterations =  5.0

     negative rho (up, down):  1.149E-06 0.000E+00

     total cpu time spent up to now is       53.5 secs

     total energy              =    -156.02204640 Ry
     estimated scf accuracy    <          1.2E-10 Ry

     iteration # 15     ecut=   200.00 Ry     beta= 0.70
     Davidson diagonalization with overlap
     ethr =  2.02E-13,  avg # of iterations =  2.0

     negative rho (up, down):  1.154E-06 0.000E+00

     total cpu time spent up to now is       56.6 secs

     total energy              =    -156.02204640 Ry
     estimated scf accuracy    <          1.2E-11 Ry

     iteration # 16     ecut=   200.00 Ry     beta= 0.70
     Davidson diagonalization with overlap
     ethr =  1.00E-13,  avg # of iterations =  2.1

     negative rho (up, down):  1.155E-06 0.000E+00

     total cpu time spent up to now is       59.4 secs

     End of self-consistent calculation

          k = 0.0000 0.0000 0.0000 ( 46815 PWs)   bands (ev):

   -53.9273 -30.0021 -29.9001 -29.9001 -12.3885 -11.4306  -3.6643  -0.6955
    -0.6955  -0.2157   0.2660   0.2660   1.7293   4.0536   4.0536   4.2408
     4.2408

          k = 0.0000 0.0385 0.0000 ( 46739 PWs)   bands (ev):

   -53.9270 -30.0015 -29.9027 -29.9007 -12.3762 -11.4250  -3.6476  -0.7386
    -0.6830  -0.2762   0.2411   0.2997   1.7206   4.0198   4.0809   4.1845
     4.2238

          k = 0.0000 0.0770 0.0000 ( 46723 PWs)   bands (ev):

   -53.9264 -29.9998 -29.9105 -29.9025 -12.3396 -11.4084  -3.5982  -0.8624
    -0.6459  -0.4201   0.1696   0.3601   1.6922   3.9370   4.0464   4.1591
     4.1752

          k = 0.0000 0.1155 0.0000 ( 46723 PWs)   bands (ev):

   -53.9254 -29.9972 -29.9231 -29.9053 -12.2798 -11.3811  -3.5183  -1.0527
    -0.6045  -0.5858   0.0603   0.3980   1.6381   3.8475   3.8811   4.1009
     4.2781

          k = 0.0000 0.1540 0.0000 ( 46703 PWs)   bands (ev):

   -53.9240 -29.9936 -29.9399 -29.9091 -12.1983 -11.3440  -3.4121  -1.2905
    -0.8130  -0.5050  -0.0757   0.3922   1.5513   3.7307   3.7931   4.0096
     4.4246

          k = 0.0000 0.1925 0.0000 ( 46701 PWs)   bands (ev):

   -53.9223 -29.9892 -29.9602 -29.9137 -12.0974 -11.2981  -3.2863  -1.5564
    -1.0395  -0.4070  -0.2274   0.3409   1.4292   3.6209   3.7982   3.9110
     4.5850

          k = 0.0000 0.2309 0.0000 ( 46680 PWs)   bands (ev):

   -53.9205 -29.9843 -29.9829 -29.9189 -11.9803 -11.2448  -3.1523  -1.8300
    -1.2808  -0.3851  -0.2965   0.2562   1.2792   3.5626   3.8145   3.8665
     4.7476

          k = 0.0000 0.2694 0.0000 ( 46702 PWs)   bands (ev):

   -53.9185 -30.0072 -29.9790 -29.9245 -11.8506 -11.1860  -3.0318  -2.0863
    -1.5324  -0.5409  -0.1787   0.1559   1.1188   3.5536   3.7285   3.9870
     4.9027

          k = 0.0000 0.3079 0.0000 ( 46710 PWs)   bands (ev):

   -53.9164 -30.0318 -29.9736 -29.9301 -11.7130 -11.1239  -2.9705  -2.2800
    -1.7872  -0.6889  -0.0597   0.0557   0.9708   3.5843   3.6595   4.1423
     5.0435

          k = 0.0000 0.3464 0.0000 ( 46702 PWs)   bands (ev):

   -53.9144 -30.0559 -29.9683 -29.9357 -11.5728 -11.0609  -3.0332  -2.3499
    -2.0359  -0.8244  -0.0340   0.0541   0.8572   3.6118   3.6428   4.3139
     5.1660

          k = 0.0000 0.3849 0.0000 ( 46748 PWs)   bands (ev):

   -53.9125 -30.0782 -29.9634 -29.9408 -11.4362 -11.0000  -3.1970  -2.3219
    -2.2681  -0.9439  -0.1086   0.1570   0.7933   3.5866   3.7183   4.4848
     5.2680

          k = 0.0000 0.4234 0.0000 ( 46718 PWs)   bands (ev):

   -53.9108 -30.0979 -29.9590 -29.9454 -11.3101 -10.9442  -3.3838  -2.4738
    -2.2727  -1.0447  -0.1670   0.2444   0.7828   3.5817   3.8010   4.6400
     5.3494

          k = 0.0000 0.4619 0.0000 ( 46706 PWs)   bands (ev):

   -53.9094 -30.1141 -29.9554 -29.9492 -11.2017 -10.8967  -3.5522  -2.6439
    -2.2355  -1.1250  -0.2098   0.3133   0.8157   3.5915   3.8822   4.7681
     5.4107

          k = 0.0000 0.5004 0.0000 ( 46716 PWs)   bands (ev):

   -53.9084 -30.1262 -29.9527 -29.9520 -11.1180 -10.8603  -3.6831  -2.7710
    -2.2149  -1.1832  -0.2388   0.3624   0.8695   3.6079   3.9529   4.8618
     5.4532

          k = 0.0000 0.5389 0.0000 ( 46722 PWs)   bands (ev):

   -53.9078 -30.1336 -29.9537 -29.9510 -11.0650 -10.8374  -3.7657  -2.8495
    -2.2062  -1.2185  -0.2555   0.3916   0.9169   3.6222   4.0025   4.9182
     5.4781

          k = 0.0000-0.5774 0.0000 ( 46676 PWs)   bands (ev):

   -53.9076 -30.1362 -29.9543 -29.9504 -11.0468 -10.8296  -3.7940  -2.8761
    -2.2041  -1.2303  -0.2609   0.4013   0.9356   3.6278   4.0206   4.9369
     5.4863

          k = 0.0333 0.0577 0.0000 ( 46739 PWs)   bands (ev):

   -53.9266 -30.0004 -29.9079 -29.9019 -12.3518 -11.4139  -3.6145  -0.8218
    -0.6585  -0.3757   0.1886   0.3484   1.7021   3.9603   4.0888   4.1350
     4.1904

          k = 0.0333 0.0962 0.0000 ( 46703 PWs)   bands (ev):

   -53.9258 -29.9982 -29.9181 -29.9043 -12.3035 -11.3919  -3.5499  -0.9779
    -0.6106  -0.5327   0.0874   0.4018   1.6608   3.8715   3.9409   4.1275
     4.2367

          k = 0.0333 0.1347 0.0000 ( 46688 PWs)   bands (ev):

   -53.9246 -29.9951 -29.9327 -29.9077 -12.2329 -11.3597  -3.4566  -1.1905
    -0.7209  -0.5415  -0.0489   0.4246   1.5903   3.7868   3.7965   4.0437
     4.3731

          k = 0.0333 0.1732 0.0000 ( 46708 PWs)   bands (ev):

   -53.9231 -29.9911 -29.9511 -29.9120 -12.1417 -11.3182  -3.3401  -1.4404
    -0.9312  -0.4543  -0.2060   0.4034   1.4855   3.6587   3.7691   3.9494
     4.5300

          k = 0.0333 0.2117 0.0000 ( 46691 PWs)   bands (ev):

   -53.9213 -29.9865 -29.9724 -29.9170 -12.0326 -11.2686  -3.2090  -1.7083
    -1.1601  -0.3700  -0.3536   0.3410   1.3490   3.5740   3.8040   3.8555
     4.6939

          k = 0.0333 0.2502 0.0000 ( 46697 PWs)   bands (ev):

   -53.9194 -29.9958 -29.9814 -29.9226 -11.9092 -11.2125  -3.0786  -1.9726
    -1.4046  -0.5301  -0.2448   0.2504   1.1940   3.5352   3.7728   3.8976
     4.8540

          k = 0.0333 0.2887 0.0000 ( 46712 PWs)   bands (ev):

   -53.9173 -30.0201 -29.9760 -29.9283 -11.7754 -11.1519  -2.9806  -2.2006
    -1.6584  -0.6792  -0.1346   0.1482   1.0419   3.5323   3.7130   4.0357
     5.0017

          k = 0.0333 0.3272 0.0000 ( 46709 PWs)   bands (ev):

   -53.9153 -30.0443 -29.9707 -29.9341 -11.6363 -11.0892  -2.9772  -2.3324
    -1.9124  -0.8135  -0.0301   0.0479   0.9166   3.5452   3.6909   4.2007
     5.1311

          k = 0.0333 0.3657 0.0000 ( 46728 PWs)   bands (ev):

   -53.9133 -30.0673 -29.9656 -29.9396 -11.4977 -11.0271  -3.1011  -2.3393
    -2.1556  -0.9312  -0.0418   0.0625   0.8374   3.5546   3.7169   4.3752
     5.2383

          k = 0.0333 0.4041 0.0000 ( 46724 PWs)   bands (ev):

   -53.9116 -30.0882 -29.9609 -29.9446 -11.3660 -10.9686  -3.2825  -2.3772
    -2.2924  -1.0312  -0.1165   0.1398   0.8129   3.5647   3.7759   4.5440
     5.3216

          k = 0.0333 0.4426 0.0000 ( 46719 PWs)   bands (ev):

   -53.9100 -30.1060 -29.9569 -29.9488 -11.2484 -10.9167  -3.4614  -2.5672
    -2.2473  -1.1127  -0.1747   0.2025   0.8365   3.5818   3.8481   4.6945
     5.3806

          k = 0.0333 0.4811 0.0000 ( 46733 PWs)   bands (ev):

   -53.9088 -30.1201 -29.9537 -29.9522 -11.1520 -10.8745  -3.6110  -2.7173
    -2.2189  -1.1747  -0.2170   0.2514   0.8889   3.6024   3.9209   4.8165
     5.4174

          k = 0.0333 0.5196 0.0000 ( 46733 PWs)   bands (ev):

   -53.9080 -30.1298 -29.9546 -29.9515 -11.0833 -10.8447  -3.7175  -2.8212
    -2.2054  -1.2166  -0.2442   0.2856   0.9450   3.6201   3.9824   4.9028
     5.4364

          k = 0.0333 0.5581 0.0000 ( 46700 PWs)   bands (ev):

   -53.9076 -30.1347 -29.9558 -29.9504 -11.0476 -10.8293  -3.7728  -2.8742
    -2.2008  -1.2376  -0.2575   0.3032   0.9807   3.6299   4.0187   4.9477
     5.4436

          k = 0.0667 0.1155 0.0000 ( 46675 PWs)   bands (ev):

   -53.9248 -29.9956 -29.9301 -29.9073 -12.2445 -11.3650  -3.4717  -1.1549
    -0.6841  -0.5552  -0.0556   0.4467   1.6031   3.7933   3.8091   4.0533
     4.3604

          k = 0.0667 0.1540 0.0000 ( 46683 PWs)   bands (ev):

   -53.9234 -29.9921 -29.9461 -29.9114 -12.1641 -11.3284  -3.3676  -1.3765
    -0.8603  -0.4828  -0.2341   0.4638   1.5142   3.6822   3.7404   3.9656
     4.5130

          k = 0.0667 0.1925 0.0000 ( 46682 PWs)   bands (ev):

   -53.9218 -29.9878 -29.9654 -29.9164 -12.0647 -11.2831  -3.2443  -1.6247
    -1.0594  -0.4236  -0.3981   0.4404   1.3943   3.5808   3.7386   3.8789
     4.6786

          k = 0.0667 0.2309 0.0000 ( 46709 PWs)   bands (ev):

   -53.9200 -29.9871 -29.9830 -29.9221 -11.9492 -11.2305  -3.1131  -1.8803
    -1.2831  -0.6029  -0.3074   0.3783   1.2523   3.5132   3.7960   3.8068
     4.8437

          k = 0.0667 0.2694 0.0000 ( 46695 PWs)   bands (ev):

   -53.9180 -30.0101 -29.9778 -29.9281 -11.8214 -11.1725  -2.9959  -2.1180
    -1.5283  -0.7593  -0.2187   0.2884   1.1072   3.4775   3.7602   3.9059
     4.9975

          k = 0.0667 0.3079 0.0000 ( 46713 PWs)   bands (ev):

   -53.9160 -30.0336 -29.9726 -29.9343 -11.6859 -11.1112  -2.9402  -2.2915
    -1.7847  -0.8895  -0.1406   0.1847   0.9829   3.4678   3.7439   4.0540
     5.1322

          k = 0.0667 0.3464 0.0000 ( 46709 PWs)   bands (ev):

   -53.9140 -30.0565 -29.9674 -29.9404 -11.5480 -11.0491  -3.0080  -2.3425
    -2.0385  -0.9960  -0.0793   0.0795   0.9012   3.4804   3.7553   4.2242
     5.2417

          k = 0.0667 0.3849 0.0000 ( 46723 PWs)   bands (ev):

   -53.9122 -30.0778 -29.9626 -29.9460 -11.4138 -10.9890  -3.1684  -2.3056
    -2.2762  -1.0818  -0.0349  -0.0180   0.8729   3.5122   3.7870   4.4015
     5.3218

          k = 0.0667 0.4234 0.0000 ( 46695 PWs)   bands (ev):

   -53.9105 -30.0965 -29.9583 -29.9510 -11.2899 -10.9339  -3.3473  -2.4864
    -2.2542  -1.1497  -0.1020  -0.0006   0.8931   3.5551   3.8335   4.5735
     5.3700

          k = 0.0667 0.4619 0.0000 ( 46718 PWs)   bands (ev):

   -53.9092 -30.1120 -29.9551 -29.9547 -11.1836 -10.8870  -3.5077  -2.6598
    -2.2174  -1.2013  -0.1690   0.0298   0.9455   3.5951   3.8932   4.7302
     5.3866

          k = 0.0667 0.5004 0.0000 ( 46733 PWs)   bands (ev):

   -53.9082 -30.1235 -29.9582 -29.9521 -11.1016 -10.8511  -3.6321  -2.7889
    -2.1983  -1.2377  -0.2174   0.0560   1.0087   3.6207   3.9601   4.8626
     5.3764

          k = 0.0667 0.5389 0.0000 ( 46720 PWs)   bands (ev):

   -53.9076 -30.1306 -29.9601 -29.9504 -11.0497 -10.8285  -3.7106  -2.8686
    -2.1909  -1.2594  -0.2465   0.0740   1.0596   3.6315   4.0160   4.9586
     5.3524

          k = 0.0667 0.5774 0.0000 ( 46730 PWs)   bands (ev):

   -53.9074 -30.1330 -29.9607 -29.9499 -11.0319 -10.8208  -3.7374  -2.8955
    -2.1892  -1.2666  -0.2562   0.0804   1.0792   3.6339   4.0381   4.9961
     5.3385

          k = 0.1000 0.1732 0.0000 ( 46669 PWs)   bands (ev):

   -53.9220 -29.9883 -29.9629 -29.9164 -12.0754 -11.2880  -3.2563  -1.5946
    -1.0164  -0.4560  -0.4150   0.4817   1.4099   3.5836   3.7108   3.8857
     4.6770

          k = 0.1000 0.2117 0.0000 ( 46667 PWs)   bands (ev):

   -53.9203 -29.9838 -29.9822 -29.9222 -11.9695 -11.2397  -3.1312  -1.8279
    -1.1964  -0.6765  -0.3453   0.4623   1.2839   3.5005   3.7288   3.8228
     4.8463

          k = 0.1000 0.2502 0.0000 ( 46684 PWs)   bands (ev):

   -53.9184 -30.0033 -29.9790 -29.9287 -11.8497 -11.1851  -3.0080  -2.0558
    -1.4120  -0.8628  -0.2830   0.4047   1.1517   3.4399   3.7872   3.8001
     5.0069

          k = 0.1000 0.2887 0.0000 ( 46689 PWs)   bands (ev):

   -53.9165 -30.0252 -29.9738 -29.9355 -11.7200 -11.1262  -2.9205  -2.2441
    -1.6601  -1.0022  -0.2381   0.3172   1.0354   3.4084   3.7787   3.9181
     5.1483

          k = 0.1000 0.3272 0.0000 ( 46712 PWs)   bands (ev):

   -53.9145 -30.0470 -29.9687 -29.9424 -11.5853 -11.0652  -2.9318  -2.3327
    -1.9209  -1.1024  -0.2168   0.2122   0.9564   3.4111   3.7897   4.0698
     5.2629

          k = 0.1000 0.3657 0.0000 ( 46716 PWs)   bands (ev):

   -53.9127 -30.0677 -29.9638 -29.9489 -11.4513 -11.0048  -3.0561  -2.3123
    -2.1737  -1.1741  -0.2159   0.1017   0.9263   3.4483   3.8113   4.2409
     5.3450

          k = 0.1000 0.4041 0.0000 ( 46694 PWs)   bands (ev):

   -53.9110 -30.0865 -29.9594 -29.9549 -11.3244 -10.9478  -3.2228  -2.4036
    -2.2567  -1.2247  -0.2228  -0.0044   0.9425   3.5109   3.8387   4.4185
     5.3907

          k = 0.1000 0.4426 0.0000 ( 46703 PWs)   bands (ev):

   -53.9095 -30.1026 -29.9600 -29.9556 -11.2112 -10.8974  -3.3836  -2.5996
    -2.2109  -1.2591  -0.2259  -0.0982   0.9929   3.5766   3.8783   4.5927
     5.3985

          k = 0.1000 0.4811 0.0000 ( 46719 PWs)   bands (ev):

   -53.9084 -30.1153 -29.9640 -29.9525 -11.1186 -10.8564  -3.5173  -2.7537
    -2.1851  -1.2811  -0.2218  -0.1738   1.0606   3.6158   3.9422   4.7555
     5.3705

          k = 0.1000 0.5196 0.0000 ( 46719 PWs)   bands (ev):

   -53.9076 -30.1240 -29.9668 -29.9504 -11.0527 -10.8274  -3.6123  -2.8598
    -2.1748  -1.2937  -0.2268  -0.2144   1.1250   3.6233   4.0185   4.8991
     5.3143

          k = 0.1000 0.5581 0.0000 ( 46726 PWs)   bands (ev):

   -53.9072 -30.1285 -29.9682 -29.9494 -11.0185 -10.8124  -3.6615  -2.9138
    -2.1723  -1.2994  -0.2542  -0.2091   1.1646   3.6189   4.0706   5.0038
     5.2522

          k = 0.1333 0.2309 0.0000 ( 46687 PWs)   bands (ev):

   -53.9186 -30.0008 -29.9793 -29.9291 -11.8592 -11.1893  -3.0125  -2.0326
    -1.3573  -0.9156  -0.3070   0.4491   1.1674   3.4266   3.7594   3.7957
     5.0121

          k = 0.1333 0.2694 0.0000 ( 46699 PWs)   bands (ev):

   -53.9167 -30.0205 -29.9745 -29.9366 -11.7373 -11.1338  -2.9127  -2.2124
    -1.5672  -1.0949  -0.2949   0.3970   1.0638   3.3761   3.7954   3.8367
     5.1610

          k = 0.1333 0.3079 0.0000 ( 46707 PWs)   bands (ev):

   -53.9149 -30.0403 -29.9696 -29.9444 -11.6082 -11.0750  -2.8833  -2.3177
    -1.8191  -1.2068  -0.3154   0.3125   0.9922   3.3640   3.8109   3.9553
     5.2834

          k = 0.1333 0.3464 0.0000 ( 46701 PWs)   bands (ev):

   -53.9130 -30.0596 -29.9647 -29.9522 -11.4773 -11.0155  -2.9643  -2.3137
    -2.0798  -1.2740  -0.3633   0.2070   0.9633   3.3961   3.8315   4.1037
     5.3728

          k = 0.1333 0.3849 0.0000 ( 46692 PWs)   bands (ev):

   -53.9113 -30.0774 -29.9602 -29.9595 -11.3501 -10.9580  -3.1061  -2.3252
    -2.2556  -1.3129  -0.4218   0.0925   0.9765   3.4658   3.8509   4.2690
     5.4254

          k = 0.1333 0.4234 0.0000 ( 46705 PWs)   bands (ev):

   -53.9098 -30.0932 -29.9660 -29.9562 -11.2333 -10.9053  -3.2548  -2.5410
    -2.2001  -1.3322  -0.4726  -0.0198   1.0240   3.5492   3.8759   4.4394
     5.4397

          k = 0.1333 0.4619 0.0000 ( 46699 PWs)   bands (ev):

   -53.9085 -30.1061 -29.9713 -29.9529 -11.1332 -10.8605  -3.3857  -2.7177
    -2.1663  -1.3381  -0.5061  -0.1201   1.0940   3.6017   3.9334   4.6048
     5.4179

          k = 0.1333 0.5004 0.0000 ( 46723 PWs)   bands (ev):

   -53.9076 -30.1158 -29.9753 -29.9504 -11.0563 -10.8261  -3.4867  -2.8487
    -2.1527  -1.3363  -0.5231  -0.1997   1.1696   3.6021   4.0285   4.7558
     5.3671

          k = 0.1333 0.5389 0.0000 ( 46740 PWs)   bands (ev):

   -53.9070 -30.1217 -29.9778 -29.9489 -11.0077 -10.8045  -3.5504  -2.9292
    -2.1504  -1.3323  -0.5295  -0.2512   1.2291   3.5808   4.1160   4.8770
     5.3042

          k = 0.1333 0.5774 0.0000 ( 46720 PWs)   bands (ev):

   -53.9068 -30.1237 -29.9787 -29.9484 -10.9911 -10.7971  -3.5721  -2.9563
    -2.1507  -1.3304  -0.5310  -0.2690   1.2519   3.5699   4.1510   4.9302
     5.2701

          k = 0.1667 0.2887 0.0000 ( 46709 PWs)   bands (ev):

   -53.9150 -30.0379 -29.9699 -29.9453 -11.6160 -11.0783  -2.8670  -2.3104
    -1.7737  -1.2545  -0.3513   0.3497   1.0045   3.3473   3.8179   3.9129
     5.2915

          k = 0.1667 0.3272 0.0000 ( 46687 PWs)   bands (ev):

   -53.9132 -30.0549 -29.9652 -29.9544 -11.4905 -11.0210  -2.9121  -2.3126
    -2.0179  -1.3426  -0.4468   0.2682   0.9819   3.3674   3.8422   4.0251
     5.3905

          k = 0.1667 0.3657 0.0000 ( 46684 PWs)   bands (ev):

   -53.9115 -30.0708 -29.9633 -29.9608 -11.3661 -10.9642  -3.0207  -2.2648
    -2.2531  -1.3851  -0.5619   0.1631   0.9957   3.4337   3.8606   4.1625
     5.4544

          k = 0.1667 0.4041 0.0000 ( 46685 PWs)   bands (ev):

   -53.9099 -30.0852 -29.9716 -29.9567 -11.2487 -10.9107  -3.1440  -2.4917
    -2.1875  -1.3993  -0.6729   0.0469   1.0416   3.5233   3.8790   4.3126
     5.4830

          k = 0.1667 0.4426 0.0000 ( 46712 PWs)   bands (ev):

   -53.9086 -30.0973 -29.9788 -29.9532 -11.1445 -10.8633  -3.2574  -2.6852
    -2.1430  -1.3948  -0.7613  -0.0680   1.1127   3.5830   3.9321   4.4631
     5.4792

          k = 0.1667 0.4811 0.0000 ( 46711 PWs)   bands (ev):

   -53.9076 -30.1068 -29.9846 -29.9505 -11.0596 -10.8249  -3.3498  -2.8371
    -2.1244  -1.3798  -0.8200  -0.1696   1.1973   3.5738   4.0426   4.6019
     5.4498

          k = 0.1667 0.5196 0.0000 ( 46705 PWs)   bands (ev):

   -53.9068 -30.1133 -29.9886 -29.9485 -10.9995 -10.7977  -3.4146  -2.9415
    -2.1232  -1.3624  -0.8526  -0.2466   1.2757   3.5297   4.1640   4.7151
     5.4082

          k = 0.1667 0.5581 0.0000 ( 46721 PWs)   bands (ev):

   -53.9065 -30.1166 -29.9906 -29.9476 -10.9683 -10.7836  -3.4481  -2.9946
    -2.1267  -1.3509  -0.8663  -0.2884   1.3240   3.4951   4.2414   4.7825
     5.3758

          k = 0.2000 0.3464 0.0000 ( 46667 PWs)   bands (ev):

   -53.9116 -30.0684 -29.9648 -29.9609 -11.3715 -10.9663  -2.9889  -2.2517
    -2.2413  -1.4136  -0.6129   0.1890   1.0019   3.4222   3.8642   4.1240
     5.4654

          k = 0.2000 0.3849 0.0000 ( 46699 PWs)   bands (ev):

   -53.9100 -30.0804 -29.9751 -29.9569 -11.2566 -10.9134  -3.0783  -2.4626
    -2.1780  -1.4397  -0.7878   0.0852   1.0493   3.5081   3.8820   4.2418
     5.5093

          k = 0.2000 0.4234 0.0000 ( 46711 PWs)   bands (ev):

   -53.9087 -30.0906 -29.9846 -29.9534 -11.1516 -10.8651  -3.1604  -2.6620
    -2.1201  -1.4365  -0.9462  -0.0302   1.1217   3.5676   3.9337   4.3655
     5.5260

          k = 0.2000 0.4619 0.0000 ( 46721 PWs)   bands (ev):

   -53.9076 -30.0987 -29.9928 -29.9505 -11.0622 -10.8239  -3.2266  -2.8272
    -2.0913  -1.4154  -1.0689  -0.1436   1.2127   3.5481   4.0552   4.4821
     5.5219

          k = 0.2000 0.5004 0.0000 ( 46731 PWs)   bands (ev):

   -53.9067 -30.1046 -29.9991 -29.9483 -10.9938 -10.7924  -3.2739  -2.9504
    -2.0895  -1.3869  -1.1485  -0.2409   1.3076   3.4803   4.2043   4.5792
     5.5058

          k = 0.2000 0.5389 0.0000 ( 46728 PWs)   bands (ev):

   -53.9062 -30.1081 -30.0031 -29.9469 -10.9508 -10.7726  -3.3019  -3.0264
    -2.1000  -1.3625  -1.1898  -0.3078   1.3823   3.4144   4.3231   4.6446
     5.4886

          k = 0.2000 0.5774 0.0000 ( 46757 PWs)   bands (ev):

   -53.9060 -30.1093 -30.0044 -29.9465 -10.9361 -10.7658  -3.3111  -3.0520
    -2.1059  -1.3529  -1.2021  -0.3319   1.4111   3.3875   4.3685   4.6680
     5.4813

          k = 0.2333 0.4041 0.0000 ( 46711 PWs)   bands (ev):

   -53.9087 -30.0880 -29.9869 -29.9534 -11.1540 -10.8656  -3.1236  -2.6534
    -2.1096  -1.4519  -1.0156  -0.0164   1.1243   3.5618   3.9346   4.3310
     5.5432

          k = 0.2333 0.4426 0.0000 ( 46734 PWs)   bands (ev):

   -53.9076 -30.0937 -29.9980 -29.9505 -11.0636 -10.8233  -3.1509  -2.8216
    -2.0638  -1.4354  -1.2197  -0.1284   1.2196   3.5331   4.0625   4.4175
     5.5628

          k = 0.2333 0.4811 0.0000 ( 46714 PWs)   bands (ev):

   -53.9067 -30.0974 -30.0074 -29.9481 -10.9905 -10.7890  -3.1606  -2.9559
    -2.0509  -1.4030  -1.3758  -0.2362   1.3264   3.4451   4.2304   4.4907
     5.5732

          k = 0.2333 0.5196 0.0000 ( 46720 PWs)   bands (ev):

   -53.9060 -30.0996 -30.0143 -29.9465 -10.9390 -10.7648  -3.1585  -3.0492
    -2.0678  -1.4704  -1.3681  -0.3232   1.4250   3.3471   4.3831   4.5430
     5.5783

          k = 0.2333 0.5581 0.0000 ( 46718 PWs)   bands (ev):

   -53.9057 -30.1005 -30.0180 -29.9456 -10.9124 -10.7522  -3.1535  -3.0969
    -2.0894  -1.5107  -1.3451  -0.3729   1.4865   3.2829   4.4749   4.5701
     5.5803

          k = 0.2667 0.4619 0.0000 ( 46705 PWs)   bands (ev):

   -53.9066 -30.0946 -30.0106 -29.9480 -10.9894 -10.7879  -3.1158  -2.9577
    -2.0291  -1.4681  -1.4087  -0.2343   1.3327   3.4324   4.2394   4.4602
     5.5972

          k = 0.2667 0.5004 0.0000 ( 46739 PWs)   bands (ev):

   -53.9059 -30.0938 -30.0215 -29.9462 -10.9331 -10.7608  -3.0622  -3.0612
    -2.0321  -1.6561  -1.3701  -0.3317   1.4481   3.3089   4.4146   4.4896
     5.6276

          k = 0.2667 0.5389 0.0000 ( 46725 PWs)   bands (ev):

   -53.9055 -30.0924 -30.0291 -29.9451 -10.8978 -10.7437  -3.1256  -3.0085
    -2.0781  -1.7505  -1.3358  -0.4024   1.5401   3.2061   4.5060   4.5447
     5.6491

          k = 0.2667 0.5774 0.0000 ( 46725 PWs)   bands (ev):

   -53.9054 -30.0917 -30.0319 -29.9447 -10.8858 -10.7379  -3.1474  -2.9845
    -2.1091  -1.7731  -1.3218  -0.4286   1.5762   3.1653   4.5112   4.5933
     5.6568

          k = 0.3000 0.5196 0.0000 ( 46711 PWs)   bands (ev):

   -53.9055 -30.0887 -30.0338 -29.9449 -10.8929 -10.7408  -3.1354  -2.9433
    -2.0734  -1.8486  -1.3317  -0.4131   1.5598   3.1776   4.4838   4.5689
     5.6736

          k = 0.3000 0.5581 0.0000 ( 46727 PWs)   bands (ev):

   -53.9052 -30.0845 -30.0418 -29.9443 -10.8723 -10.7305  -3.1738  -2.8432
    -2.1810  -1.9005  -1.3055  -0.4613   1.6305   3.0942   4.4792   4.6581
     5.6998

          k = 0.3333 0.5774 0.0000 ( 46731 PWs)   bands (ev):

   -53.9051 -30.0801 -30.0477 -29.9440 -10.8636 -10.7260  -3.1902  -2.7470
    -2.2805  -1.9270  -1.2930  -0.4835   1.6661   3.0505   4.4696   4.6992
     5.7181

     the Fermi energy is     1.1318 ev

!    total energy              =    -156.02204640 Ry
     estimated scf accuracy    <          1.2E-13 Ry
     smearing contrib. (-TS)   =      -0.00548705 Ry
     internal energy E=F+TS    =    -156.01655936 Ry

     The total energy is F=E-TS. E is the sum of the following terms:
     one-electron contribution =    -449.81179854 Ry
     hartree contribution      =     226.78076650 Ry
     xc contribution           =     -26.77435976 Ry
     ewald contribution        =      93.78883245 Ry

     convergence has been achieved in  16 iterations

     negative rho (up, down):  1.155E-06 0.000E+00

     Forces acting on atoms (cartesian axes, Ry/au):

     atom    1 type  1   force =     0.00000000   -0.00000000    0.00000000
     atom    2 type  2   force =     0.00000000   -0.00000000    0.00000773
     atom    3 type  2   force =    -0.00000000   -0.00000000   -0.00000773

     Total force =     0.000011     Total SCF correction =     0.000001


     Computing stress (Cartesian axis) and pressure


     negative rho (up, down):  1.155E-06 0.000E+00
          total   stress  (Ry/bohr**3)                   (kbar)     P=        0.01
   0.00000011   0.00000000   0.00000000            0.02        0.00        0.00
   0.00000000   0.00000011  -0.00000000            0.00        0.02       -0.00
  -0.00000000   0.00000000   0.00000001           -0.00        0.00        0.00


     Writing all to output data dir ./outdir/0.007.save/
 
     init_run     :      2.73s CPU      2.83s WALL (       1 calls)
     electrons    :     55.14s CPU     56.09s WALL (       1 calls)
     forces       :      0.21s CPU      0.23s WALL (       1 calls)
     stress       :      0.60s CPU      0.61s WALL (       1 calls)

     Called by init_run:
     wfcinit      :      2.46s CPU      2.51s WALL (       1 calls)
     potinit      :      0.03s CPU      0.03s WALL (       1 calls)
     hinit0       :      0.13s CPU      0.18s WALL (       1 calls)

     Called by electrons:
     c_bands      :     44.73s CPU     45.44s WALL (      17 calls)
     sum_band     :      7.23s CPU      7.39s WALL (      17 calls)
     v_of_rho     :      0.13s CPU      0.13s WALL (      17 calls)
     newd         :      0.29s CPU      0.30s WALL (      17 calls)
     mix_rho      :      2.70s CPU      2.72s WALL (      17 calls)

     Called by c_bands:
     init_us_2    :      0.57s CPU      0.60s WALL (    3367 calls)
     init_us_2:cp :      0.57s CPU      0.60s WALL (    3367 calls)
     cegterg      :     42.25s CPU     42.88s WALL (    1547 calls)

     Called by *egterg:
     cdiaghg      :      1.91s CPU      1.97s WALL (    5929 calls)
     h_psi        :     36.99s CPU     37.43s WALL (    6111 calls)
     s_psi        :      0.86s CPU      0.90s WALL (    6111 calls)
     g_psi        :      0.10s CPU      0.10s WALL (    4473 calls)

     Called by h_psi:
     h_psi:calbec :      1.70s CPU      1.79s WALL (    6111 calls)
     vloc_psi     :     34.22s CPU     34.53s WALL (    6111 calls)
     add_vuspsi   :      0.91s CPU      0.96s WALL (    6111 calls)

     General routines
     calbec       :      2.31s CPU      2.44s WALL (    8113 calls)
     fft          :      0.14s CPU      0.14s WALL (     213 calls)
     ffts         :      1.91s CPU      1.93s WALL (    4162 calls)
     fftw         :     38.32s CPU     38.70s WALL (  173595 calls)
 
     Parallel routines
 
     PWSCF        :   1m 1.12s CPU   1m 6.93s WALL

 
   This run was terminated on:   8:54:54  18Jun2022            

=------------------------------------------------------------------------------=
   JOB DONE.
=------------------------------------------------------------------------------=
