
     Program PWSCF v.7.0 starts on 18Jun2022 at  9: 1:30 

     This program is part of the open-source Quantum ESPRESSO suite
     for quantum simulation of materials; please cite
         "P. Giannozzi et al., J. Phys.:Condens. Matter 21 395502 (2009);
         "P. Giannozzi et al., J. Phys.:Condens. Matter 29 465901 (2017);
         "P. Giannozzi et al., J. Chem. Phys. 152 154105 (2020);
          URL http://www.quantum-espresso.org", 
     in publications or presentations arising from this work. More details at
     http://www.quantum-espresso.org/quote

     Parallel version (MPI), running on    64 processors

     MPI processes distributed on     1 nodes
     459706 MiB available memory on the printing compute node when the environment starts
 
     Reading input from ./inputs/0.001-scf.in
Warning: card &CELL ignored
Warning: card / ignored

     Current dimensions of program PWSCF are:
     Max number of different atomic species (ntypx) = 10
     Max number of k-points (npk) =  40000
     Max angular momentum in pseudopotentials (lmaxx) =  4
     file Nb.pbe-spn-rrkjus_psl.1.0.0.UPF: wavefunction(s)  4S 4P renormalized
     file Se.pbe-mt_fhi.UPF: wavefunction(s)  4f renormalized
     Message from routine setup:
     using ibrav=0 with symmetry is DISCOURAGED, use correct ibrav instead
 
     R & G space division:  proc/nbgrp/npool/nimage =      64
     Subspace diagonalization in iterative solution of the eigenvalue problem:
     a serial algorithm will be used

 
     Parallelization info
     --------------------
     sticks:   dense  smooth     PW     G-vecs:    dense   smooth      PW
     Min          37      37     10                 5819     5819     828
     Max          38      38     11                 5840     5840     847
     Sum        2383    2383    649               373405   373405   53367
 
     Using Slab Decomposition
 


     bravais-lattice index     =            0
     lattice parameter (alat)  =       6.5729  a.u.
     unit-cell volume          =     976.8795 (a.u.)^3
     number of atoms/cell      =            3
     number of atomic types    =            2
     number of electrons       =        25.00
     number of Kohn-Sham states=           17
     kinetic-energy cutoff     =     200.0000  Ry
     charge density cutoff     =     800.0000  Ry
     scf convergence threshold =      1.0E-12
     mixing beta               =       0.7000
     number of iterations used =            8  local-TF  mixing
     Exchange-correlation= PBE
                           (   1   4   3   4   0   0   0)

     celldm(1)=   6.572938  celldm(2)=   0.000000  celldm(3)=   0.000000
     celldm(4)=   0.000000  celldm(5)=   0.000000  celldm(6)=   0.000000

     crystal axes: (cart. coord. in units of alat)
               a(1) = (   1.000000   0.000000   0.000000 )  
               a(2) = (  -0.500000   0.866025   0.000000 )  
               a(3) = (   0.000000   0.000000   3.972205 )  

     reciprocal axes: (cart. coord. in units 2 pi/alat)
               b(1) = (  1.000000  0.577350  0.000000 )  
               b(2) = (  0.000000  1.154701  0.000000 )  
               b(3) = (  0.000000  0.000000  0.251749 )  


     PseudoPot. # 1 for Nb read from file:
     ./PP/Nb.pbe-spn-rrkjus_psl.1.0.0.UPF
     MD5 check sum: 6ee677a9f002bd3e3657f443f129faad
     Pseudo is Ultrasoft + core correction, Zval = 13.0
     Generated using &quot;atomic&quot; code by A. Dal Corso  v.6.2.2
     Using radial grid of 1227 points,  6 beta functions with: 
                l(1) =   0
                l(2) =   0
                l(3) =   1
                l(4) =   1
                l(5) =   2
                l(6) =   2
     Q(r) pseudized with 0 coefficients 


     PseudoPot. # 2 for Se read from file:
     ./PP/Se.pbe-mt_fhi.UPF
     MD5 check sum: 761aa2365a2a775fd78ad90d13f3567a
     Pseudo is Norm-conserving, Zval =  6.0
     Generated using FHI98PP, converted with fhi2upf.x v.5.0.2
     Using radial grid of  533 points,  3 beta functions with: 
                l(1) =   0
                l(2) =   1
                l(3) =   3

     atomic species   valence    mass     pseudopotential
        Nb            13.00    92.90000     Nb( 1.00)
        Se             6.00    78.96000     Se( 1.00)

     12 Sym. Ops. (no inversion) found



   Cartesian axes

     site n.     atom                  positions (alat units)
         1           Nb  tau(   1) = (   0.0000000   0.0000000   1.9861026  )
         2           Se  tau(   2) = (  -0.0000000   0.5773503   1.5031623  )
         3           Se  tau(   3) = (  -0.0000000   0.5773503   2.4690429  )

     number of k points=    91  Fermi-Dirac smearing, width (Ry)=  0.0010
                       cart. coord. in units 2pi/alat
        k(    1) = (   0.0000000   0.0000000   0.0000000), wk =   0.0022222
        k(    2) = (   0.0000000   0.0384900   0.0000000), wk =   0.0133333
        k(    3) = (   0.0000000   0.0769800   0.0000000), wk =   0.0133333
        k(    4) = (   0.0000000   0.1154701   0.0000000), wk =   0.0133333
        k(    5) = (   0.0000000   0.1539601   0.0000000), wk =   0.0133333
        k(    6) = (   0.0000000   0.1924501   0.0000000), wk =   0.0133333
        k(    7) = (   0.0000000   0.2309401   0.0000000), wk =   0.0133333
        k(    8) = (   0.0000000   0.2694301   0.0000000), wk =   0.0133333
        k(    9) = (   0.0000000   0.3079201   0.0000000), wk =   0.0133333
        k(   10) = (   0.0000000   0.3464102   0.0000000), wk =   0.0133333
        k(   11) = (   0.0000000   0.3849002   0.0000000), wk =   0.0133333
        k(   12) = (   0.0000000   0.4233902   0.0000000), wk =   0.0133333
        k(   13) = (   0.0000000   0.4618802   0.0000000), wk =   0.0133333
        k(   14) = (   0.0000000   0.5003702   0.0000000), wk =   0.0133333
        k(   15) = (   0.0000000   0.5388603   0.0000000), wk =   0.0133333
        k(   16) = (   0.0000000  -0.5773503   0.0000000), wk =   0.0066667
        k(   17) = (   0.0333333   0.0577350   0.0000000), wk =   0.0133333
        k(   18) = (   0.0333333   0.0962250   0.0000000), wk =   0.0266667
        k(   19) = (   0.0333333   0.1347151   0.0000000), wk =   0.0266667
        k(   20) = (   0.0333333   0.1732051   0.0000000), wk =   0.0266667
        k(   21) = (   0.0333333   0.2116951   0.0000000), wk =   0.0266667
        k(   22) = (   0.0333333   0.2501851   0.0000000), wk =   0.0266667
        k(   23) = (   0.0333333   0.2886751   0.0000000), wk =   0.0266667
        k(   24) = (   0.0333333   0.3271652   0.0000000), wk =   0.0266667
        k(   25) = (   0.0333333   0.3656552   0.0000000), wk =   0.0266667
        k(   26) = (   0.0333333   0.4041452   0.0000000), wk =   0.0266667
        k(   27) = (   0.0333333   0.4426352   0.0000000), wk =   0.0266667
        k(   28) = (   0.0333333   0.4811252   0.0000000), wk =   0.0266667
        k(   29) = (   0.0333333   0.5196152   0.0000000), wk =   0.0266667
        k(   30) = (   0.0333333   0.5581053   0.0000000), wk =   0.0266667
        k(   31) = (   0.0666667   0.1154701   0.0000000), wk =   0.0133333
        k(   32) = (   0.0666667   0.1539601   0.0000000), wk =   0.0266667
        k(   33) = (   0.0666667   0.1924501   0.0000000), wk =   0.0266667
        k(   34) = (   0.0666667   0.2309401   0.0000000), wk =   0.0266667
        k(   35) = (   0.0666667   0.2694301   0.0000000), wk =   0.0266667
        k(   36) = (   0.0666667   0.3079201   0.0000000), wk =   0.0266667
        k(   37) = (   0.0666667   0.3464102   0.0000000), wk =   0.0266667
        k(   38) = (   0.0666667   0.3849002   0.0000000), wk =   0.0266667
        k(   39) = (   0.0666667   0.4233902   0.0000000), wk =   0.0266667
        k(   40) = (   0.0666667   0.4618802   0.0000000), wk =   0.0266667
        k(   41) = (   0.0666667   0.5003702   0.0000000), wk =   0.0266667
        k(   42) = (   0.0666667   0.5388603   0.0000000), wk =   0.0266667
        k(   43) = (   0.0666667   0.5773503   0.0000000), wk =   0.0133333
        k(   44) = (   0.1000000   0.1732051   0.0000000), wk =   0.0133333
        k(   45) = (   0.1000000   0.2116951   0.0000000), wk =   0.0266667
        k(   46) = (   0.1000000   0.2501851   0.0000000), wk =   0.0266667
        k(   47) = (   0.1000000   0.2886751   0.0000000), wk =   0.0266667
        k(   48) = (   0.1000000   0.3271652   0.0000000), wk =   0.0266667
        k(   49) = (   0.1000000   0.3656552   0.0000000), wk =   0.0266667
        k(   50) = (   0.1000000   0.4041452   0.0000000), wk =   0.0266667
        k(   51) = (   0.1000000   0.4426352   0.0000000), wk =   0.0266667
        k(   52) = (   0.1000000   0.4811252   0.0000000), wk =   0.0266667
        k(   53) = (   0.1000000   0.5196152   0.0000000), wk =   0.0266667
        k(   54) = (   0.1000000   0.5581053   0.0000000), wk =   0.0266667
        k(   55) = (   0.1333333   0.2309401   0.0000000), wk =   0.0133333
        k(   56) = (   0.1333333   0.2694301   0.0000000), wk =   0.0266667
        k(   57) = (   0.1333333   0.3079201   0.0000000), wk =   0.0266667
        k(   58) = (   0.1333333   0.3464102   0.0000000), wk =   0.0266667
        k(   59) = (   0.1333333   0.3849002   0.0000000), wk =   0.0266667
        k(   60) = (   0.1333333   0.4233902   0.0000000), wk =   0.0266667
        k(   61) = (   0.1333333   0.4618802   0.0000000), wk =   0.0266667
        k(   62) = (   0.1333333   0.5003702   0.0000000), wk =   0.0266667
        k(   63) = (   0.1333333   0.5388603   0.0000000), wk =   0.0266667
        k(   64) = (   0.1333333   0.5773503   0.0000000), wk =   0.0133333
        k(   65) = (   0.1666667   0.2886751   0.0000000), wk =   0.0133333
        k(   66) = (   0.1666667   0.3271652   0.0000000), wk =   0.0266667
        k(   67) = (   0.1666667   0.3656552   0.0000000), wk =   0.0266667
        k(   68) = (   0.1666667   0.4041452   0.0000000), wk =   0.0266667
        k(   69) = (   0.1666667   0.4426352   0.0000000), wk =   0.0266667
        k(   70) = (   0.1666667   0.4811252   0.0000000), wk =   0.0266667
        k(   71) = (   0.1666667   0.5196152   0.0000000), wk =   0.0266667
        k(   72) = (   0.1666667   0.5581053   0.0000000), wk =   0.0266667
        k(   73) = (   0.2000000   0.3464102   0.0000000), wk =   0.0133333
        k(   74) = (   0.2000000   0.3849002   0.0000000), wk =   0.0266667
        k(   75) = (   0.2000000   0.4233902   0.0000000), wk =   0.0266667
        k(   76) = (   0.2000000   0.4618802   0.0000000), wk =   0.0266667
        k(   77) = (   0.2000000   0.5003702   0.0000000), wk =   0.0266667
        k(   78) = (   0.2000000   0.5388603   0.0000000), wk =   0.0266667
        k(   79) = (   0.2000000   0.5773503   0.0000000), wk =   0.0133333
        k(   80) = (   0.2333333   0.4041452   0.0000000), wk =   0.0133333
        k(   81) = (   0.2333333   0.4426352   0.0000000), wk =   0.0266667
        k(   82) = (   0.2333333   0.4811252   0.0000000), wk =   0.0266667
        k(   83) = (   0.2333333   0.5196152   0.0000000), wk =   0.0266667
        k(   84) = (   0.2333333   0.5581053   0.0000000), wk =   0.0266667
        k(   85) = (   0.2666667   0.4618802   0.0000000), wk =   0.0133333
        k(   86) = (   0.2666667   0.5003702   0.0000000), wk =   0.0266667
        k(   87) = (   0.2666667   0.5388603   0.0000000), wk =   0.0266667
        k(   88) = (   0.2666667   0.5773503   0.0000000), wk =   0.0133333
        k(   89) = (   0.3000000   0.5196152   0.0000000), wk =   0.0133333
        k(   90) = (   0.3000000   0.5581053   0.0000000), wk =   0.0266667
        k(   91) = (   0.3333333   0.5773503   0.0000000), wk =   0.0044444

     Dense  grid:   373405 G-vectors     FFT dimensions: (  60,  60, 240)

     Estimated max dynamical RAM per process >      47.84 MB

     Estimated total dynamical RAM >       2.99 GB

     Initial potential from superposition of free atoms

     starting charge      24.9985, renormalised to      25.0000

     negative rho (up, down):  2.492E-03 0.000E+00
     Starting wfcs are   45 randomized atomic wfcs

     total cpu time spent up to now is        3.3 secs

     Self-consistent Calculation

     iteration #  1     ecut=   200.00 Ry     beta= 0.70
     Davidson diagonalization with overlap
     ethr =  1.00E-02,  avg # of iterations =  1.9

     Threshold (ethr) on eigenvalues was too large:
     Diagonalizing with lowered threshold

     Davidson diagonalization with overlap
     ethr =  3.04E-04,  avg # of iterations =  3.4

     negative rho (up, down):  2.946E-06 0.000E+00

     total cpu time spent up to now is        9.4 secs

     total energy              =    -156.02226349 Ry
     estimated scf accuracy    <       0.08743699 Ry

     iteration #  2     ecut=   200.00 Ry     beta= 0.70
     Davidson diagonalization with overlap
     ethr =  3.50E-04,  avg # of iterations =  1.0

     total cpu time spent up to now is       11.9 secs

     total energy              =    -156.01354285 Ry
     estimated scf accuracy    <       0.04102768 Ry

     iteration #  3     ecut=   200.00 Ry     beta= 0.70
     Davidson diagonalization with overlap
     ethr =  1.64E-04,  avg # of iterations =  2.0

     total cpu time spent up to now is       14.7 secs

     total energy              =    -156.01875282 Ry
     estimated scf accuracy    <       0.00453666 Ry

     iteration #  4     ecut=   200.00 Ry     beta= 0.70
     Davidson diagonalization with overlap
     ethr =  1.81E-05,  avg # of iterations =  3.9

     total cpu time spent up to now is       18.0 secs

     total energy              =    -156.01876866 Ry
     estimated scf accuracy    <       0.00196747 Ry

     iteration #  5     ecut=   200.00 Ry     beta= 0.70
     Davidson diagonalization with overlap
     ethr =  7.87E-06,  avg # of iterations =  2.2

     total cpu time spent up to now is       20.9 secs

     total energy              =    -156.01886233 Ry
     estimated scf accuracy    <       0.00073465 Ry

     iteration #  6     ecut=   200.00 Ry     beta= 0.70
     Davidson diagonalization with overlap
     ethr =  2.94E-06,  avg # of iterations =  2.8

     total cpu time spent up to now is       23.8 secs

     total energy              =    -156.01904112 Ry
     estimated scf accuracy    <       0.00024476 Ry

     iteration #  7     ecut=   200.00 Ry     beta= 0.70
     Davidson diagonalization with overlap
     ethr =  9.79E-07,  avg # of iterations =  3.6

     total cpu time spent up to now is       27.2 secs

     total energy              =    -156.01911320 Ry
     estimated scf accuracy    <       0.00006459 Ry

     iteration #  8     ecut=   200.00 Ry     beta= 0.70
     Davidson diagonalization with overlap
     ethr =  2.58E-07,  avg # of iterations =  1.9

     negative rho (up, down):  3.331E-08 0.000E+00

     total cpu time spent up to now is       29.8 secs

     total energy              =    -156.01911873 Ry
     estimated scf accuracy    <       0.00001396 Ry

     iteration #  9     ecut=   200.00 Ry     beta= 0.70
     Davidson diagonalization with overlap
     ethr =  5.58E-08,  avg # of iterations =  3.6

     negative rho (up, down):  6.242E-07 0.000E+00

     total cpu time spent up to now is       33.4 secs

     total energy              =    -156.01912339 Ry
     estimated scf accuracy    <       0.00000040 Ry

     iteration # 10     ecut=   200.00 Ry     beta= 0.70
     Davidson diagonalization with overlap
     ethr =  1.61E-09,  avg # of iterations =  4.1

     negative rho (up, down):  1.272E-06 0.000E+00

     total cpu time spent up to now is       37.4 secs

     total energy              =    -156.01912363 Ry
     estimated scf accuracy    <       0.00000009 Ry

     iteration # 11     ecut=   200.00 Ry     beta= 0.70
     Davidson diagonalization with overlap
     ethr =  3.56E-10,  avg # of iterations =  2.3

     negative rho (up, down):  1.203E-06 0.000E+00

     total cpu time spent up to now is       40.6 secs

     total energy              =    -156.01912364 Ry
     estimated scf accuracy    <          2.8E-09 Ry

     iteration # 12     ecut=   200.00 Ry     beta= 0.70
     Davidson diagonalization with overlap
     ethr =  1.11E-11,  avg # of iterations =  4.8

     negative rho (up, down):  1.365E-06 0.000E+00

     total cpu time spent up to now is       45.2 secs

     total energy              =    -156.01912364 Ry
     estimated scf accuracy    <          1.4E-09 Ry

     iteration # 13     ecut=   200.00 Ry     beta= 0.70
     Davidson diagonalization with overlap
     ethr =  5.62E-12,  avg # of iterations =  2.0

     negative rho (up, down):  1.262E-06 0.000E+00

     total cpu time spent up to now is       48.5 secs

     total energy              =    -156.01912364 Ry
     estimated scf accuracy    <          6.2E-11 Ry

     iteration # 14     ecut=   200.00 Ry     beta= 0.70
     Davidson diagonalization with overlap
     ethr =  2.47E-13,  avg # of iterations =  5.0

     negative rho (up, down):  1.257E-06 0.000E+00

     total cpu time spent up to now is       53.0 secs

     total energy              =    -156.01912364 Ry
     estimated scf accuracy    <          1.6E-10 Ry

     iteration # 15     ecut=   200.00 Ry     beta= 0.70
     Davidson diagonalization with overlap
     ethr =  2.47E-13,  avg # of iterations =  2.0

     negative rho (up, down):  1.264E-06 0.000E+00

     total cpu time spent up to now is       56.1 secs

     total energy              =    -156.01912364 Ry
     estimated scf accuracy    <          7.7E-12 Ry

     iteration # 16     ecut=   200.00 Ry     beta= 0.70
     Davidson diagonalization with overlap
     ethr =  1.00E-13,  avg # of iterations =  2.2

     negative rho (up, down):  1.265E-06 0.000E+00

     total cpu time spent up to now is       58.9 secs

     End of self-consistent calculation

          k = 0.0000 0.0000 0.0000 ( 46731 PWs)   bands (ev):

   -53.9192 -29.9934 -29.8920 -29.8920 -12.3867 -11.4267  -3.6618  -0.6884
    -0.6884  -0.2107   0.2754   0.2754   1.7355   4.0671   4.0671   4.2548
     4.2548

          k = 0.0000 0.0385 0.0000 ( 46689 PWs)   bands (ev):

   -53.9189 -29.9928 -29.8947 -29.8926 -12.3743 -11.4211  -3.6451  -0.7315
    -0.6758  -0.2711   0.2505   0.3089   1.7268   4.0333   4.0945   4.1982
     4.2377

          k = 0.0000 0.0770 0.0000 ( 46667 PWs)   bands (ev):

   -53.9183 -29.9911 -29.9025 -29.8944 -12.3377 -11.4044  -3.5956  -0.8554
    -0.6386  -0.4148   0.1788   0.3691   1.6986   3.9503   4.0593   4.1729
     4.1889

          k = 0.0000 0.1155 0.0000 ( 46659 PWs)   bands (ev):

   -53.9173 -29.9884 -29.9152 -29.8972 -12.2776 -11.3770  -3.5156  -1.0458
    -0.5993  -0.5782   0.0693   0.4068   1.6447   3.8605   3.8931   4.1143
     4.2921

          k = 0.0000 0.1540 0.0000 ( 46643 PWs)   bands (ev):

   -53.9159 -29.9848 -29.9321 -29.9011 -12.1958 -11.3398  -3.4092  -1.2839
    -0.8080  -0.4971  -0.0671   0.4008   1.5580   3.7417   3.8059   4.0227
     4.4389

          k = 0.0000 0.1925 0.0000 ( 46655 PWs)   bands (ev):

   -53.9142 -29.9804 -29.9525 -29.9057 -12.0947 -11.2938  -3.2832  -1.5499
    -1.0348  -0.3988  -0.2191   0.3492   1.4360   3.6311   3.8109   3.9238
     4.5997

          k = 0.0000 0.2309 0.0000 ( 46620 PWs)   bands (ev):

   -53.9123 -29.9754 -29.9754 -29.9109 -11.9771 -11.2404  -3.1491  -1.8238
    -1.2763  -0.3771  -0.2879   0.2641   1.2859   3.5724   3.8270   3.8793
     4.7625

          k = 0.0000 0.2694 0.0000 ( 46660 PWs)   bands (ev):

   -53.9103 -29.9998 -29.9701 -29.9165 -11.8470 -11.1814  -3.0285  -2.0801
    -1.5282  -0.5333  -0.1696   0.1634   1.1252   3.5632   3.7407   4.0000
     4.9177

          k = 0.0000 0.3079 0.0000 ( 46640 PWs)   bands (ev):

   -53.9082 -30.0247 -29.9647 -29.9222 -11.7089 -11.1191  -2.9675  -2.2736
    -1.7833  -0.6817  -0.0503   0.0628   0.9770   3.5941   3.6715   4.1555
     5.0588

          k = 0.0000 0.3464 0.0000 ( 46648 PWs)   bands (ev):

   -53.9062 -30.0488 -29.9593 -29.9278 -11.5682 -11.0559  -3.0304  -2.3435
    -2.0324  -0.8174  -0.0273   0.0640   0.8632   3.6237   3.6531   4.3273
     5.1813

          k = 0.0000 0.3849 0.0000 ( 46668 PWs)   bands (ev):

   -53.9043 -30.0713 -29.9544 -29.9330 -11.4311 -10.9948  -3.1943  -2.3159
    -2.2651  -0.9371  -0.1022   0.1673   0.7992   3.5985   3.7291   4.4982
     5.2834

          k = 0.0000 0.4234 0.0000 ( 46658 PWs)   bands (ev):

   -53.9026 -30.0911 -29.9499 -29.9376 -11.3045 -10.9388  -3.3813  -2.4711
    -2.2671  -1.0382  -0.1607   0.2549   0.7889   3.5938   3.8126   4.6535
     5.3647

          k = 0.0000 0.4619 0.0000 ( 46652 PWs)   bands (ev):

   -53.9012 -30.1075 -29.9463 -29.9414 -11.1956 -10.8911  -3.5500  -2.6415
    -2.2303  -1.1185  -0.2038   0.3240   0.8221   3.6038   3.8947   4.7816
     5.4260

          k = 0.0000 0.5004 0.0000 ( 46654 PWs)   bands (ev):

   -53.9001 -30.1196 -29.9442 -29.9436 -11.1115 -10.8546  -3.6811  -2.7689
    -2.2100  -1.1769  -0.2329   0.3733   0.8762   3.6203   3.9662   4.8752
     5.4685

          k = 0.0000 0.5389 0.0000 ( 46650 PWs)   bands (ev):

   -53.8995 -30.1271 -29.9460 -29.9419 -11.0583 -10.8316  -3.7639  -2.8475
    -2.2016  -1.2122  -0.2496   0.4026   0.9239   3.6348   4.0164   4.9315
     5.4934

          k = 0.0000-0.5774 0.0000 ( 46660 PWs)   bands (ev):

   -53.8993 -30.1297 -29.9466 -29.9413 -11.0401 -10.8238  -3.7922  -2.8741
    -2.1995  -1.2241  -0.2551   0.4123   0.9427   3.6404   4.0348   4.9502
     5.5016

          k = 0.0333 0.0577 0.0000 ( 46683 PWs)   bands (ev):

   -53.9185 -29.9917 -29.8999 -29.8938 -12.3498 -11.4099  -3.6120  -0.8148
    -0.6512  -0.3705   0.1979   0.3575   1.7084   3.9736   4.1019   4.1487
     4.2041

          k = 0.0333 0.0962 0.0000 ( 46649 PWs)   bands (ev):

   -53.9177 -29.9895 -29.9101 -29.8962 -12.3015 -11.3879  -3.5472  -0.9710
    -0.6031  -0.5274   0.0964   0.4107   1.6673   3.8845   3.9532   4.1410
     4.2507

          k = 0.0333 0.1347 0.0000 ( 46658 PWs)   bands (ev):

   -53.9165 -29.9863 -29.9248 -29.8996 -12.2305 -11.3556  -3.4538  -1.1838
    -0.7158  -0.5338  -0.0403   0.4334   1.5969   3.7982   3.8093   4.0570
     4.3874

          k = 0.0333 0.1732 0.0000 ( 46656 PWs)   bands (ev):

   -53.9149 -29.9823 -29.9433 -29.9040 -12.1391 -11.3140  -3.3370  -1.4339
    -0.9263  -0.4463  -0.1977   0.4120   1.4923   3.6692   3.7818   3.9623
     4.5445

          k = 0.0333 0.2117 0.0000 ( 46652 PWs)   bands (ev):

   -53.9131 -29.9776 -29.9648 -29.9090 -12.0297 -11.2642  -3.2057  -1.7019
    -1.1555  -0.3621  -0.3452   0.3493   1.3558   3.5839   3.8167   3.8681
     4.7087

          k = 0.0333 0.2502 0.0000 ( 46655 PWs)   bands (ev):

   -53.9112 -29.9884 -29.9725 -29.9146 -11.9058 -11.2080  -3.0753  -1.9664
    -1.4002  -0.5227  -0.2360   0.2584   1.2006   3.5449   3.7851   3.9104
     4.8690

          k = 0.0333 0.2887 0.0000 ( 46668 PWs)   bands (ev):

   -53.9091 -30.0128 -29.9671 -29.9204 -11.7715 -11.1472  -2.9774  -2.1943
    -1.6544  -0.6721  -0.1254   0.1557   1.0483   3.5422   3.7249   4.0487
     5.0169

          k = 0.0333 0.3272 0.0000 ( 46650 PWs)   bands (ev):

   -53.9071 -30.0372 -29.9617 -29.9262 -11.6319 -11.0843  -2.9744  -2.3260
    -1.9087  -0.8067  -0.0206   0.0550   0.9227   3.5556   3.7024   4.2139
     5.1464

          k = 0.0333 0.3657 0.0000 ( 46679 PWs)   bands (ev):

   -53.9051 -30.0603 -29.9566 -29.9317 -11.4928 -11.0220  -3.0984  -2.3331
    -2.1523  -0.9246  -0.0350   0.0722   0.8435   3.5658   3.7282   4.3886
     5.2537

          k = 0.0333 0.4041 0.0000 ( 46672 PWs)   bands (ev):

   -53.9033 -30.0814 -29.9519 -29.9368 -11.3606 -10.9633  -3.2799  -2.3743
    -2.2866  -1.0248  -0.1100   0.1498   0.8192   3.5763   3.7875   4.5575
     5.3369

          k = 0.0333 0.4426 0.0000 ( 46671 PWs)   bands (ev):

   -53.9018 -30.0993 -29.9478 -29.9411 -11.2425 -10.9112  -3.4590  -2.5646
    -2.2419  -1.1063  -0.1685   0.2126   0.8432   3.5937   3.8604   4.7080
     5.3958

          k = 0.0333 0.4811 0.0000 ( 46682 PWs)   bands (ev):

   -53.9006 -30.1135 -29.9446 -29.9445 -11.1457 -10.8689  -3.6089  -2.7151
    -2.2139  -1.1685  -0.2109   0.2616   0.8959   3.6147   3.9339   4.8301
     5.4326

          k = 0.0333 0.5196 0.0000 ( 46682 PWs)   bands (ev):

   -53.8997 -30.1233 -29.9468 -29.9424 -11.0767 -10.8390  -3.7156  -2.8191
    -2.2006  -1.2104  -0.2382   0.2959   0.9523   3.6326   3.9961   4.9163
     5.4515

          k = 0.0333 0.5581 0.0000 ( 46660 PWs)   bands (ev):

   -53.8993 -30.1282 -29.9480 -29.9413 -11.0408 -10.8235  -3.7710  -2.8722
    -2.1961  -1.2315  -0.2516   0.3136   0.9881   3.6426   4.0328   4.9611
     5.4586

          k = 0.0667 0.1155 0.0000 ( 46647 PWs)   bands (ev):

   -53.9167 -29.9868 -29.9222 -29.8992 -12.2422 -11.3609  -3.4688  -1.1481
    -0.6789  -0.5475  -0.0470   0.4556   1.6097   3.8061   3.8207   4.0665
     4.3746

          k = 0.0667 0.1540 0.0000 ( 46650 PWs)   bands (ev):

   -53.9153 -29.9833 -29.9383 -29.9034 -12.1616 -11.3242  -3.3646  -1.3699
    -0.8554  -0.4748  -0.2260   0.4727   1.5210   3.6930   3.7530   3.9785
     4.5275

          k = 0.0667 0.1925 0.0000 ( 46640 PWs)   bands (ev):

   -53.9137 -29.9790 -29.9578 -29.9084 -12.0618 -11.2788  -3.2411  -1.6183
    -1.0547  -0.4160  -0.3898   0.4492   1.4011   3.5910   3.7512   3.8914
     4.6934

          k = 0.0667 0.2309 0.0000 ( 46643 PWs)   bands (ev):

   -53.9118 -29.9796 -29.9741 -29.9141 -11.9459 -11.2261  -3.1098  -1.8740
    -1.2786  -0.5958  -0.2988   0.3868   1.2590   3.5230   3.8085   3.8190
     4.8587

          k = 0.0667 0.2694 0.0000 ( 46641 PWs)   bands (ev):

   -53.9098 -30.0028 -29.9689 -29.9202 -11.8177 -11.1679  -2.9926  -2.1118
    -1.5240  -0.7526  -0.2098   0.2966   1.1137   3.4872   3.7721   3.9186
     5.0127

          k = 0.0667 0.3079 0.0000 ( 46664 PWs)   bands (ev):

   -53.9078 -30.0264 -29.9636 -29.9264 -11.6817 -11.1063  -2.9373  -2.2850
    -1.7807  -0.8832  -0.1314   0.1925   0.9892   3.4777   3.7557   4.0669
     5.1475

          k = 0.0667 0.3464 0.0000 ( 46663 PWs)   bands (ev):

   -53.9058 -30.0495 -29.9584 -29.9325 -11.5433 -11.0440  -3.0052  -2.3361
    -2.0349  -0.9898  -0.0701   0.0869   0.9076   3.4907   3.7672   4.2373
     5.2570

          k = 0.0667 0.3849 0.0000 ( 46667 PWs)   bands (ev):

   -53.9039 -30.0709 -29.9535 -29.9382 -11.4085 -10.9837  -3.1657  -2.2995
    -2.2731  -1.0758  -0.0257  -0.0110   0.8795   3.5229   3.7991   4.4148
     5.3370

          k = 0.0667 0.4234 0.0000 ( 46658 PWs)   bands (ev):

   -53.9023 -30.0897 -29.9492 -29.9432 -11.2842 -10.9285  -3.3448  -2.4837
    -2.2485  -1.1437  -0.0953   0.0086   0.9001   3.5663   3.8461   4.5869
     5.3850

          k = 0.0667 0.4619 0.0000 ( 46672 PWs)   bands (ev):

   -53.9009 -30.1053 -29.9474 -29.9456 -11.1774 -10.8814  -3.5054  -2.6574
    -2.2121  -1.1953  -0.1626   0.0391   0.9529   3.6070   3.9062   4.7438
     5.4014

          k = 0.0667 0.5004 0.0000 ( 46675 PWs)   bands (ev):

   -53.8999 -30.1169 -29.9505 -29.9430 -11.0950 -10.8454  -3.6301  -2.7868
    -2.1933  -1.2317  -0.2112   0.0655   1.0163   3.6331   3.9735   4.8764
     5.3910

          k = 0.0667 0.5389 0.0000 ( 46672 PWs)   bands (ev):

   -53.8993 -30.1241 -29.9524 -29.9413 -11.0429 -10.8227  -3.7087  -2.8666
    -2.1862  -1.2534  -0.2404   0.0836   1.0675   3.6442   4.0298   4.9724
     5.3667

          k = 0.0667 0.5774 0.0000 ( 46668 PWs)   bands (ev):

   -53.8991 -30.1265 -29.9530 -29.9407 -11.0251 -10.8150  -3.7356  -2.8936
    -2.1846  -1.2606  -0.2502   0.0900   1.0871   3.6467   4.0522   5.0100
     5.3527

          k = 0.1000 0.1732 0.0000 ( 46649 PWs)   bands (ev):

   -53.9138 -29.9794 -29.9552 -29.9084 -12.0726 -11.2837  -3.2531  -1.5882
    -1.0116  -0.4485  -0.4068   0.4906   1.4167   3.5938   3.7233   3.8982
     4.6918

          k = 0.1000 0.2117 0.0000 ( 46632 PWs)   bands (ev):

   -53.9121 -29.9750 -29.9747 -29.9143 -11.9663 -11.2352  -3.1278  -1.8216
    -1.1917  -0.6696  -0.3368   0.4712   1.2906   3.5103   3.7412   3.8349
     4.8613

          k = 0.1000 0.2502 0.0000 ( 46641 PWs)   bands (ev):

   -53.9102 -29.9959 -29.9701 -29.9208 -11.8460 -11.1805  -3.0046  -2.0496
    -1.4075  -0.8565  -0.2743   0.4134   1.1583   3.4495   3.7991   3.8125
     5.0221

          k = 0.1000 0.2887 0.0000 ( 46640 PWs)   bands (ev):

   -53.9083 -30.0180 -29.9649 -29.9277 -11.7159 -11.1214  -2.9175  -2.2376
    -1.6559  -0.9964  -0.2292   0.3256   1.0419   3.4180   3.7906   3.9307
     5.1636

          k = 0.1000 0.3272 0.0000 ( 46653 PWs)   bands (ev):

   -53.9063 -30.0399 -29.9598 -29.9346 -11.5807 -11.0602  -2.9290  -2.3261
    -1.9170  -1.0968  -0.2080   0.2202   0.9630   3.4208   3.8018   4.0826
     5.2782

          k = 0.1000 0.3657 0.0000 ( 46666 PWs)   bands (ev):

   -53.9044 -30.0608 -29.9548 -29.9411 -11.4462 -10.9996  -3.0534  -2.3059
    -2.1703  -1.1687  -0.2072   0.1093   0.9331   3.4583   3.8237   4.2539
     5.3602

          k = 0.1000 0.4041 0.0000 ( 46646 PWs)   bands (ev):

   -53.9027 -30.0797 -29.9503 -29.9471 -11.3188 -10.9424  -3.2202  -2.4006
    -2.2506  -1.2193  -0.2143   0.0029   0.9496   3.5214   3.8516   4.4317
     5.4058

          k = 0.1000 0.4426 0.0000 ( 46639 PWs)   bands (ev):

   -53.9012 -30.0959 -29.9523 -29.9465 -11.2051 -10.8918  -3.3812  -2.5970
    -2.2052  -1.2536  -0.2174  -0.0913   1.0004   3.5878   3.8915   4.6060
     5.4133

          k = 0.1000 0.4811 0.0000 ( 46681 PWs)   bands (ev):

   -53.9001 -30.1087 -29.9564 -29.9434 -11.1121 -10.8507  -3.5150  -2.7514
    -2.1799  -1.2755  -0.2131  -0.1673   1.0684   3.6279   3.9556   4.7690
     5.3849

          k = 0.1000 0.5196 0.0000 ( 46667 PWs)   bands (ev):

   -53.8993 -30.1175 -29.9592 -29.9413 -11.0460 -10.8216  -3.6102  -2.8577
    -2.1699  -1.2881  -0.2206  -0.2056   1.1330   3.6360   4.0321   4.9129
     5.3284

          k = 0.1000 0.5581 0.0000 ( 46668 PWs)   bands (ev):

   -53.8989 -30.1220 -29.9606 -29.9402 -11.0116 -10.8065  -3.6596  -2.9119
    -2.1675  -1.2937  -0.2480  -0.2003   1.1726   3.6320   4.0844   5.0179
     5.2658

          k = 0.1333 0.2309 0.0000 ( 46637 PWs)   bands (ev):

   -53.9104 -29.9934 -29.9704 -29.9212 -11.8556 -11.1847  -3.0091  -2.0263
    -1.3527  -0.9095  -0.2984   0.4579   1.1741   3.4362   3.7718   3.8076
     5.0272

          k = 0.1333 0.2694 0.0000 ( 46652 PWs)   bands (ev):

   -53.9085 -30.0132 -29.9656 -29.9288 -11.7332 -11.1290  -2.9095  -2.2059
    -1.5626  -1.0895  -0.2862   0.4057   1.0705   3.3855   3.8073   3.8490
     5.1763

          k = 0.1333 0.3079 0.0000 ( 46654 PWs)   bands (ev):

   -53.9066 -30.0332 -29.9606 -29.9366 -11.6037 -11.0701  -2.8805  -2.3109
    -1.8149  -1.2018  -0.3069   0.3210   0.9989   3.3734   3.8231   3.9677
     5.2987

          k = 0.1333 0.3464 0.0000 ( 46639 PWs)   bands (ev):

   -53.9048 -30.0526 -29.9557 -29.9444 -11.4723 -11.0104  -2.9616  -2.3070
    -2.0761  -1.2691  -0.3551   0.2151   0.9702   3.4056   3.8442   4.1164
     5.3881

          k = 0.1333 0.3849 0.0000 ( 46644 PWs)   bands (ev):

   -53.9030 -30.0706 -29.9518 -29.9512 -11.3446 -10.9527  -3.1034  -2.3220
    -2.2493  -1.3080  -0.4139   0.1002   0.9836   3.4757   3.8641   4.2818
     5.4406

          k = 0.1333 0.4234 0.0000 ( 46647 PWs)   bands (ev):

   -53.9015 -30.0864 -29.9583 -29.9472 -11.2273 -10.8998  -3.2522  -2.5382
    -2.1941  -1.3272  -0.4648  -0.0125   1.0314   3.5598   3.8895   4.4523
     5.4547

          k = 0.1333 0.4619 0.0000 ( 46663 PWs)   bands (ev):

   -53.9002 -30.0994 -29.9637 -29.9438 -11.1268 -10.8548  -3.3833  -2.7153
    -2.1607  -1.3329  -0.4982  -0.1132   1.1017   3.6134   3.9469   4.6178
     5.4327

          k = 0.1333 0.5004 0.0000 ( 46681 PWs)   bands (ev):

   -53.8993 -30.1091 -29.9677 -29.9413 -11.0495 -10.8203  -3.4845  -2.8466
    -2.1475  -1.3310  -0.5150  -0.1932   1.1775   3.6148   4.0420   4.7689
     5.3817

          k = 0.1333 0.5389 0.0000 ( 46687 PWs)   bands (ev):

   -53.8987 -30.1151 -29.9702 -29.9398 -11.0008 -10.7986  -3.5482  -2.9273
    -2.1454  -1.3268  -0.5214  -0.2449   1.2372   3.5940   4.1296   4.8902
     5.3186

          k = 0.1333 0.5774 0.0000 ( 46684 PWs)   bands (ev):

   -53.8985 -30.1172 -29.9711 -29.9393 -10.9841 -10.7912  -3.5700  -2.9545
    -2.1458  -1.3249  -0.5229  -0.2628   1.2600   3.5832   4.1647   4.9433
     5.2845

          k = 0.1667 0.2887 0.0000 ( 46637 PWs)   bands (ev):

   -53.9067 -30.0307 -29.9609 -29.9375 -11.6115 -11.0734  -2.8642  -2.3036
    -1.7693  -1.2498  -0.3429   0.3584   1.0113   3.3566   3.8302   3.9253
     5.3068

          k = 0.1667 0.3272 0.0000 ( 46626 PWs)   bands (ev):

   -53.9050 -30.0479 -29.9562 -29.9467 -11.4855 -11.0159  -2.9094  -2.3057
    -2.0138  -1.3381  -0.4388   0.2766   0.9888   3.3767   3.8550   4.0375
     5.4058

          k = 0.1667 0.3657 0.0000 ( 46618 PWs)   bands (ev):

   -53.9032 -30.0639 -29.9556 -29.9517 -11.3606 -10.9589  -3.0179  -2.2614
    -2.2464  -1.3806  -0.5544   0.1711   1.0029   3.4432   3.8740   4.1750
     5.4697

          k = 0.1667 0.4041 0.0000 ( 46633 PWs)   bands (ev):

   -53.9017 -30.0783 -29.9640 -29.9476 -11.2428 -10.9052  -3.1413  -2.4887
    -2.1811  -1.3947  -0.6656   0.0545   1.0489   3.5334   3.8929   4.3252
     5.4983

          k = 0.1667 0.4426 0.0000 ( 46663 PWs)   bands (ev):

   -53.9003 -30.0905 -29.9712 -29.9441 -11.1382 -10.8577  -3.2548  -2.6827
    -2.1370  -1.3900  -0.7541  -0.0608   1.1203   3.5942   3.9458   4.4756
     5.4944

          k = 0.1667 0.4811 0.0000 ( 46666 PWs)   bands (ev):

   -53.8993 -30.1001 -29.9770 -29.9413 -11.0529 -10.8190  -3.3473  -2.8350
    -2.1188  -1.3748  -0.8128  -0.1629   1.2050   3.5863   4.0559   4.6143
     5.4651

          k = 0.1667 0.5196 0.0000 ( 46646 PWs)   bands (ev):

   -53.8985 -30.1067 -29.9811 -29.9394 -10.9925 -10.7917  -3.4123  -2.9396
    -2.1180  -1.3572  -0.8452  -0.2401   1.2836   3.5429   4.1775   4.7274
     5.4235

          k = 0.1667 0.5581 0.0000 ( 46675 PWs)   bands (ev):

   -53.8982 -30.1100 -29.9831 -29.9384 -10.9612 -10.7776  -3.4458  -2.9929
    -2.1218  -1.3456  -0.8588  -0.2821   1.3320   3.5086   4.2550   4.7946
     5.3913

          k = 0.2000 0.3464 0.0000 ( 46619 PWs)   bands (ev):

   -53.9033 -30.0615 -29.9571 -29.9519 -11.3661 -10.9610  -2.9862  -2.2448
    -2.2377  -1.4093  -0.6055   0.1971   1.0090   3.4317   3.8776   4.1364
     5.4808

          k = 0.2000 0.3849 0.0000 ( 46637 PWs)   bands (ev):

   -53.9018 -30.0735 -29.9675 -29.9479 -11.2507 -10.9079  -3.0756  -2.4595
    -2.1713  -1.4353  -0.7809   0.0930   1.0566   3.5180   3.8959   4.2541
     5.5247

          k = 0.2000 0.4234 0.0000 ( 46654 PWs)   bands (ev):

   -53.9004 -30.0838 -29.9771 -29.9443 -11.1453 -10.8594  -3.1577  -2.6594
    -2.1137  -1.4320  -0.9396  -0.0228   1.1292   3.5786   3.9475   4.3777
     5.5416

          k = 0.2000 0.4619 0.0000 ( 46668 PWs)   bands (ev):

   -53.8993 -30.0919 -29.9854 -29.9413 -11.0555 -10.8180  -3.2240  -2.8251
    -2.0852  -1.4106  -1.0624  -0.1366   1.2204   3.5604   4.0686   4.4940
     5.5377

          k = 0.2000 0.5004 0.0000 ( 46694 PWs)   bands (ev):

   -53.8984 -30.0978 -29.9917 -29.9391 -10.9868 -10.7864  -3.2713  -2.9486
    -2.0840  -1.3819  -1.1418  -0.2344   1.3154   3.4934   4.2177   4.5908
     5.5218

          k = 0.2000 0.5389 0.0000 ( 46665 PWs)   bands (ev):

   -53.8979 -30.1014 -29.9957 -29.9378 -10.9436 -10.7665  -3.2994  -3.0247
    -2.0949  -1.3573  -1.1830  -0.3015   1.3903   3.4278   4.3366   4.6560
     5.5049

          k = 0.2000 0.5774 0.0000 ( 46676 PWs)   bands (ev):

   -53.8977 -30.1026 -29.9970 -29.9373 -10.9289 -10.7597  -3.3086  -3.0504
    -2.1009  -1.3476  -1.1953  -0.3257   1.4192   3.4010   4.3822   4.6792
     5.4977

          k = 0.2333 0.4041 0.0000 ( 46649 PWs)   bands (ev):

   -53.9004 -30.0812 -29.9794 -29.9443 -11.1477 -10.8599  -3.1209  -2.6508
    -2.1030  -1.4474  -1.0092  -0.0089   1.1317   3.5727   3.9485   4.3430
     5.5589

          k = 0.2333 0.4426 0.0000 ( 46677 PWs)   bands (ev):

   -53.8993 -30.0869 -29.9905 -29.9413 -11.0570 -10.8175  -3.1482  -2.8194
    -2.0573  -1.4308  -1.2137  -0.1213   1.2272   3.5454   4.0758   4.4292
     5.5789

          k = 0.2333 0.4811 0.0000 ( 46666 PWs)   bands (ev):

   -53.8984 -30.0907 -30.0000 -29.9390 -10.9835 -10.7830  -3.1579  -2.9541
    -2.0449  -1.3982  -1.3699  -0.2295   1.3342   3.4581   4.2437   4.5020
     5.5898

          k = 0.2333 0.5196 0.0000 ( 46674 PWs)   bands (ev):

   -53.8977 -30.0929 -30.0070 -29.9373 -10.9318 -10.7587  -3.1557  -3.0476
    -2.0624  -1.4643  -1.3630  -0.3169   1.4330   3.3604   4.3967   4.5539
     5.5953

          k = 0.2333 0.5581 0.0000 ( 46652 PWs)   bands (ev):

   -53.8974 -30.0938 -30.0107 -29.9365 -10.9050 -10.7461  -3.1508  -3.0955
    -2.0843  -1.5044  -1.3399  -0.3668   1.4946   3.2963   4.4886   4.5807
     5.5975

          k = 0.2667 0.4619 0.0000 ( 46649 PWs)   bands (ev):

   -53.8983 -30.0878 -30.0032 -29.9389 -10.9824 -10.7819  -3.1131  -2.9559
    -2.0228  -1.4625  -1.4039  -0.2275   1.3404   3.4454   4.2527   4.4713
     5.6139

          k = 0.2667 0.5004 0.0000 ( 46699 PWs)   bands (ev):

   -53.8977 -30.0870 -30.0142 -29.9371 -10.9258 -10.7547  -3.0596  -3.0594
    -2.0263  -1.6505  -1.3651  -0.3253   1.4560   3.3222   4.4281   4.5002
     5.6449

          k = 0.2667 0.5389 0.0000 ( 46673 PWs)   bands (ev):

   -53.8972 -30.0856 -30.0219 -29.9359 -10.8904 -10.7376  -3.1242  -3.0055
    -2.0731  -1.7445  -1.3305  -0.3963   1.5481   3.2194   4.5163   4.5585
     5.6668

          k = 0.2667 0.5774 0.0000 ( 46665 PWs)   bands (ev):

   -53.8971 -30.0849 -30.0247 -29.9356 -10.8784 -10.7317  -3.1461  -2.9815
    -2.1044  -1.7669  -1.3165  -0.4226   1.5843   3.1786   4.5214   4.6072
     5.6747

          k = 0.3000 0.5196 0.0000 ( 46673 PWs)   bands (ev):

   -53.8972 -30.0819 -30.0266 -29.9358 -10.8855 -10.7346  -3.1341  -2.9402
    -2.0684  -1.8427  -1.3265  -0.4070   1.5679   3.1909   4.4940   4.5827
     5.6915

          k = 0.3000 0.5581 0.0000 ( 46687 PWs)   bands (ev):

   -53.8969 -30.0776 -30.0347 -29.9351 -10.8648 -10.7243  -3.1725  -2.8399
    -2.1768  -1.8942  -1.3001  -0.4554   1.6386   3.1074   4.4892   4.6721
     5.7180

          k = 0.3333 0.5774 0.0000 ( 46695 PWs)   bands (ev):

   -53.8968 -30.0733 -30.0406 -29.9348 -10.8561 -10.7198  -3.1890  -2.7435
    -2.2766  -1.9207  -1.2876  -0.4777   1.6742   3.0638   4.4794   4.7132
     5.7365

     the Fermi energy is     1.1147 ev

!    total energy              =    -156.01912364 Ry
     estimated scf accuracy    <          2.6E-14 Ry
     smearing contrib. (-TS)   =      -0.00012843 Ry
     internal energy E=F+TS    =    -156.01899521 Ry

     The total energy is F=E-TS. E is the sum of the following terms:
     one-electron contribution =    -450.49582017 Ry
     hartree contribution      =     227.12884444 Ry
     xc contribution           =     -26.77649208 Ry
     ewald contribution        =      94.12447260 Ry

     convergence has been achieved in  16 iterations

     negative rho (up, down):  1.265E-06 0.000E+00

     Forces acting on atoms (cartesian axes, Ry/au):

     atom    1 type  1   force =     0.00000000    0.00000000    0.00000000
     atom    2 type  2   force =     0.00000000   -0.00000000   -0.00021929
     atom    3 type  2   force =     0.00000000    0.00000000    0.00021929

     Total force =     0.000310     Total SCF correction =     0.000000


     Computing stress (Cartesian axis) and pressure


     negative rho (up, down):  1.265E-06 0.000E+00
          total   stress  (Ry/bohr**3)                   (kbar)     P=        0.23
   0.00000160   0.00000000   0.00000000            0.23        0.00        0.00
   0.00000000   0.00000160   0.00000000            0.00        0.23        0.00
   0.00000000   0.00000000   0.00000149            0.00        0.00        0.22


     Writing all to output data dir ./outdir/0.001.save/
 
     init_run     :      2.83s CPU      2.92s WALL (       1 calls)
     electrons    :     54.72s CPU     55.66s WALL (       1 calls)
     forces       :      0.20s CPU      0.23s WALL (       1 calls)
     stress       :      0.60s CPU      0.61s WALL (       1 calls)

     Called by init_run:
     wfcinit      :      2.49s CPU      2.52s WALL (       1 calls)
     potinit      :      0.03s CPU      0.03s WALL (       1 calls)
     hinit0       :      0.21s CPU      0.25s WALL (       1 calls)

     Called by electrons:
     c_bands      :     44.03s CPU     44.72s WALL (      17 calls)
     sum_band     :      7.21s CPU      7.36s WALL (      17 calls)
     v_of_rho     :      0.12s CPU      0.13s WALL (      17 calls)
     newd         :      0.29s CPU      0.30s WALL (      17 calls)
     mix_rho      :      3.02s CPU      3.04s WALL (      17 calls)

     Called by c_bands:
     init_us_2    :      0.57s CPU      0.60s WALL (    3367 calls)
     init_us_2:cp :      0.56s CPU      0.59s WALL (    3367 calls)
     cegterg      :     41.54s CPU     42.15s WALL (    1547 calls)

     Called by *egterg:
     cdiaghg      :      1.87s CPU      1.93s WALL (    5887 calls)
     h_psi        :     36.43s CPU     36.84s WALL (    6069 calls)
     s_psi        :      0.84s CPU      0.87s WALL (    6069 calls)
     g_psi        :      0.09s CPU      0.10s WALL (    4431 calls)

     Called by h_psi:
     h_psi:calbec :      1.70s CPU      1.77s WALL (    6069 calls)
     vloc_psi     :     33.66s CPU     33.96s WALL (    6069 calls)
     add_vuspsi   :      0.91s CPU      0.95s WALL (    6069 calls)

     General routines
     calbec       :      2.29s CPU      2.41s WALL (    8071 calls)
     fft          :      0.13s CPU      0.14s WALL (     213 calls)
     ffts         :      2.13s CPU      2.14s WALL (    4668 calls)
     fftw         :     37.72s CPU     38.09s WALL (  171555 calls)
 
     Parallel routines
 
     PWSCF        :   1m 0.40s CPU   1m 6.10s WALL

 
   This run was terminated on:   9: 2:36  18Jun2022            

=------------------------------------------------------------------------------=
   JOB DONE.
=------------------------------------------------------------------------------=
