
     Program PWSCF v.7.0 starts on 18Jun2022 at  8:51:14 

     This program is part of the open-source Quantum ESPRESSO suite
     for quantum simulation of materials; please cite
         "P. Giannozzi et al., J. Phys.:Condens. Matter 21 395502 (2009);
         "P. Giannozzi et al., J. Phys.:Condens. Matter 29 465901 (2017);
         "P. Giannozzi et al., J. Chem. Phys. 152 154105 (2020);
          URL http://www.quantum-espresso.org", 
     in publications or presentations arising from this work. More details at
     http://www.quantum-espresso.org/quote

     Parallel version (MPI), running on    64 processors

     MPI processes distributed on     1 nodes
     464905 MiB available memory on the printing compute node when the environment starts
 
     Reading input from ./inputs/0.008-scf.in
Warning: card &CELL ignored
Warning: card / ignored

     Current dimensions of program PWSCF are:
     Max number of different atomic species (ntypx) = 10
     Max number of k-points (npk) =  40000
     Max angular momentum in pseudopotentials (lmaxx) =  4
     file Nb.pbe-spn-rrkjus_psl.1.0.0.UPF: wavefunction(s)  4S 4P renormalized
     file Se.pbe-mt_fhi.UPF: wavefunction(s)  4f renormalized
     Message from routine setup:
     using ibrav=0 with symmetry is DISCOURAGED, use correct ibrav instead
 
     R & G space division:  proc/nbgrp/npool/nimage =      64
     Subspace diagonalization in iterative solution of the eigenvalue problem:
     a serial algorithm will be used

 
     Parallelization info
     --------------------
     sticks:   dense  smooth     PW     G-vecs:    dense   smooth      PW
     Min          37      37     10                 5835     5835     828
     Max          39      39     11                 5848     5848     847
     Sum        2395    2395    649               373801   373801   53367
 
     Using Slab Decomposition
 


     bravais-lattice index     =            0
     lattice parameter (alat)  =       6.5777  a.u.
     unit-cell volume          =     978.1095 (a.u.)^3
     number of atoms/cell      =            3
     number of atomic types    =            2
     number of electrons       =        25.00
     number of Kohn-Sham states=           17
     kinetic-energy cutoff     =     200.0000  Ry
     charge density cutoff     =     800.0000  Ry
     scf convergence threshold =      1.0E-12
     mixing beta               =       0.7000
     number of iterations used =            8  local-TF  mixing
     Exchange-correlation= PBE
                           (   1   4   3   4   0   0   0)

     celldm(1)=   6.577729  celldm(2)=   0.000000  celldm(3)=   0.000000
     celldm(4)=   0.000000  celldm(5)=   0.000000  celldm(6)=   0.000000

     crystal axes: (cart. coord. in units of alat)
               a(1) = (   1.000000   0.000000   0.000000 )  
               a(2) = (  -0.500000   0.866025   0.000000 )  
               a(3) = (   0.000000   0.000000   3.968523 )  

     reciprocal axes: (cart. coord. in units 2 pi/alat)
               b(1) = (  1.000000  0.577350  0.000000 )  
               b(2) = (  0.000000  1.154701  0.000000 )  
               b(3) = (  0.000000  0.000000  0.251983 )  


     PseudoPot. # 1 for Nb read from file:
     ./PP/Nb.pbe-spn-rrkjus_psl.1.0.0.UPF
     MD5 check sum: 6ee677a9f002bd3e3657f443f129faad
     Pseudo is Ultrasoft + core correction, Zval = 13.0
     Generated using &quot;atomic&quot; code by A. Dal Corso  v.6.2.2
     Using radial grid of 1227 points,  6 beta functions with: 
                l(1) =   0
                l(2) =   0
                l(3) =   1
                l(4) =   1
                l(5) =   2
                l(6) =   2
     Q(r) pseudized with 0 coefficients 


     PseudoPot. # 2 for Se read from file:
     ./PP/Se.pbe-mt_fhi.UPF
     MD5 check sum: 761aa2365a2a775fd78ad90d13f3567a
     Pseudo is Norm-conserving, Zval =  6.0
     Generated using FHI98PP, converted with fhi2upf.x v.5.0.2
     Using radial grid of  533 points,  3 beta functions with: 
                l(1) =   0
                l(2) =   1
                l(3) =   3

     atomic species   valence    mass     pseudopotential
        Nb            13.00    92.90000     Nb( 1.00)
        Se             6.00    78.96000     Se( 1.00)

     12 Sym. Ops. (no inversion) found



   Cartesian axes

     site n.     atom                  positions (alat units)
         1           Nb  tau(   1) = (   0.0000000   0.0000000   1.9842613  )
         2           Se  tau(   2) = (  -0.0000000   0.5773503   1.5015337  )
         3           Se  tau(   3) = (  -0.0000000   0.5773503   2.4669888  )

     number of k points=    91  Fermi-Dirac smearing, width (Ry)=  0.0080
                       cart. coord. in units 2pi/alat
        k(    1) = (   0.0000000   0.0000000   0.0000000), wk =   0.0022222
        k(    2) = (   0.0000000   0.0384900   0.0000000), wk =   0.0133333
        k(    3) = (   0.0000000   0.0769800   0.0000000), wk =   0.0133333
        k(    4) = (   0.0000000   0.1154701   0.0000000), wk =   0.0133333
        k(    5) = (   0.0000000   0.1539601   0.0000000), wk =   0.0133333
        k(    6) = (   0.0000000   0.1924501   0.0000000), wk =   0.0133333
        k(    7) = (   0.0000000   0.2309401   0.0000000), wk =   0.0133333
        k(    8) = (   0.0000000   0.2694301   0.0000000), wk =   0.0133333
        k(    9) = (   0.0000000   0.3079201   0.0000000), wk =   0.0133333
        k(   10) = (   0.0000000   0.3464102   0.0000000), wk =   0.0133333
        k(   11) = (   0.0000000   0.3849002   0.0000000), wk =   0.0133333
        k(   12) = (   0.0000000   0.4233902   0.0000000), wk =   0.0133333
        k(   13) = (   0.0000000   0.4618802   0.0000000), wk =   0.0133333
        k(   14) = (   0.0000000   0.5003702   0.0000000), wk =   0.0133333
        k(   15) = (   0.0000000   0.5388603   0.0000000), wk =   0.0133333
        k(   16) = (   0.0000000  -0.5773503   0.0000000), wk =   0.0066667
        k(   17) = (   0.0333333   0.0577350   0.0000000), wk =   0.0133333
        k(   18) = (   0.0333333   0.0962250   0.0000000), wk =   0.0266667
        k(   19) = (   0.0333333   0.1347151   0.0000000), wk =   0.0266667
        k(   20) = (   0.0333333   0.1732051   0.0000000), wk =   0.0266667
        k(   21) = (   0.0333333   0.2116951   0.0000000), wk =   0.0266667
        k(   22) = (   0.0333333   0.2501851   0.0000000), wk =   0.0266667
        k(   23) = (   0.0333333   0.2886751   0.0000000), wk =   0.0266667
        k(   24) = (   0.0333333   0.3271652   0.0000000), wk =   0.0266667
        k(   25) = (   0.0333333   0.3656552   0.0000000), wk =   0.0266667
        k(   26) = (   0.0333333   0.4041452   0.0000000), wk =   0.0266667
        k(   27) = (   0.0333333   0.4426352   0.0000000), wk =   0.0266667
        k(   28) = (   0.0333333   0.4811252   0.0000000), wk =   0.0266667
        k(   29) = (   0.0333333   0.5196152   0.0000000), wk =   0.0266667
        k(   30) = (   0.0333333   0.5581053   0.0000000), wk =   0.0266667
        k(   31) = (   0.0666667   0.1154701   0.0000000), wk =   0.0133333
        k(   32) = (   0.0666667   0.1539601   0.0000000), wk =   0.0266667
        k(   33) = (   0.0666667   0.1924501   0.0000000), wk =   0.0266667
        k(   34) = (   0.0666667   0.2309401   0.0000000), wk =   0.0266667
        k(   35) = (   0.0666667   0.2694301   0.0000000), wk =   0.0266667
        k(   36) = (   0.0666667   0.3079201   0.0000000), wk =   0.0266667
        k(   37) = (   0.0666667   0.3464102   0.0000000), wk =   0.0266667
        k(   38) = (   0.0666667   0.3849002   0.0000000), wk =   0.0266667
        k(   39) = (   0.0666667   0.4233902   0.0000000), wk =   0.0266667
        k(   40) = (   0.0666667   0.4618802   0.0000000), wk =   0.0266667
        k(   41) = (   0.0666667   0.5003702   0.0000000), wk =   0.0266667
        k(   42) = (   0.0666667   0.5388603   0.0000000), wk =   0.0266667
        k(   43) = (   0.0666667   0.5773503   0.0000000), wk =   0.0133333
        k(   44) = (   0.1000000   0.1732051   0.0000000), wk =   0.0133333
        k(   45) = (   0.1000000   0.2116951   0.0000000), wk =   0.0266667
        k(   46) = (   0.1000000   0.2501851   0.0000000), wk =   0.0266667
        k(   47) = (   0.1000000   0.2886751   0.0000000), wk =   0.0266667
        k(   48) = (   0.1000000   0.3271652   0.0000000), wk =   0.0266667
        k(   49) = (   0.1000000   0.3656552   0.0000000), wk =   0.0266667
        k(   50) = (   0.1000000   0.4041452   0.0000000), wk =   0.0266667
        k(   51) = (   0.1000000   0.4426352   0.0000000), wk =   0.0266667
        k(   52) = (   0.1000000   0.4811252   0.0000000), wk =   0.0266667
        k(   53) = (   0.1000000   0.5196152   0.0000000), wk =   0.0266667
        k(   54) = (   0.1000000   0.5581053   0.0000000), wk =   0.0266667
        k(   55) = (   0.1333333   0.2309401   0.0000000), wk =   0.0133333
        k(   56) = (   0.1333333   0.2694301   0.0000000), wk =   0.0266667
        k(   57) = (   0.1333333   0.3079201   0.0000000), wk =   0.0266667
        k(   58) = (   0.1333333   0.3464102   0.0000000), wk =   0.0266667
        k(   59) = (   0.1333333   0.3849002   0.0000000), wk =   0.0266667
        k(   60) = (   0.1333333   0.4233902   0.0000000), wk =   0.0266667
        k(   61) = (   0.1333333   0.4618802   0.0000000), wk =   0.0266667
        k(   62) = (   0.1333333   0.5003702   0.0000000), wk =   0.0266667
        k(   63) = (   0.1333333   0.5388603   0.0000000), wk =   0.0266667
        k(   64) = (   0.1333333   0.5773503   0.0000000), wk =   0.0133333
        k(   65) = (   0.1666667   0.2886751   0.0000000), wk =   0.0133333
        k(   66) = (   0.1666667   0.3271652   0.0000000), wk =   0.0266667
        k(   67) = (   0.1666667   0.3656552   0.0000000), wk =   0.0266667
        k(   68) = (   0.1666667   0.4041452   0.0000000), wk =   0.0266667
        k(   69) = (   0.1666667   0.4426352   0.0000000), wk =   0.0266667
        k(   70) = (   0.1666667   0.4811252   0.0000000), wk =   0.0266667
        k(   71) = (   0.1666667   0.5196152   0.0000000), wk =   0.0266667
        k(   72) = (   0.1666667   0.5581053   0.0000000), wk =   0.0266667
        k(   73) = (   0.2000000   0.3464102   0.0000000), wk =   0.0133333
        k(   74) = (   0.2000000   0.3849002   0.0000000), wk =   0.0266667
        k(   75) = (   0.2000000   0.4233902   0.0000000), wk =   0.0266667
        k(   76) = (   0.2000000   0.4618802   0.0000000), wk =   0.0266667
        k(   77) = (   0.2000000   0.5003702   0.0000000), wk =   0.0266667
        k(   78) = (   0.2000000   0.5388603   0.0000000), wk =   0.0266667
        k(   79) = (   0.2000000   0.5773503   0.0000000), wk =   0.0133333
        k(   80) = (   0.2333333   0.4041452   0.0000000), wk =   0.0133333
        k(   81) = (   0.2333333   0.4426352   0.0000000), wk =   0.0266667
        k(   82) = (   0.2333333   0.4811252   0.0000000), wk =   0.0266667
        k(   83) = (   0.2333333   0.5196152   0.0000000), wk =   0.0266667
        k(   84) = (   0.2333333   0.5581053   0.0000000), wk =   0.0266667
        k(   85) = (   0.2666667   0.4618802   0.0000000), wk =   0.0133333
        k(   86) = (   0.2666667   0.5003702   0.0000000), wk =   0.0266667
        k(   87) = (   0.2666667   0.5388603   0.0000000), wk =   0.0266667
        k(   88) = (   0.2666667   0.5773503   0.0000000), wk =   0.0133333
        k(   89) = (   0.3000000   0.5196152   0.0000000), wk =   0.0133333
        k(   90) = (   0.3000000   0.5581053   0.0000000), wk =   0.0266667
        k(   91) = (   0.3333333   0.5773503   0.0000000), wk =   0.0044444

     Dense  grid:   373801 G-vectors     FFT dimensions: (  60,  60, 240)

     Estimated max dynamical RAM per process >      47.83 MB

     Estimated total dynamical RAM >       2.99 GB

     Initial potential from superposition of free atoms

     starting charge      24.9985, renormalised to      25.0000

     negative rho (up, down):  2.488E-03 0.000E+00
     Starting wfcs are   45 randomized atomic wfcs

     total cpu time spent up to now is        3.2 secs

     Self-consistent Calculation

     iteration #  1     ecut=   200.00 Ry     beta= 0.70
     Davidson diagonalization with overlap
     ethr =  1.00E-02,  avg # of iterations =  1.9

     Threshold (ethr) on eigenvalues was too large:
     Diagonalizing with lowered threshold

     Davidson diagonalization with overlap
     ethr =  3.03E-04,  avg # of iterations =  3.5

     negative rho (up, down):  2.575E-06 0.000E+00

     total cpu time spent up to now is        9.3 secs

     total energy              =    -156.02593433 Ry
     estimated scf accuracy    <       0.08686493 Ry

     iteration #  2     ecut=   200.00 Ry     beta= 0.70
     Davidson diagonalization with overlap
     ethr =  3.47E-04,  avg # of iterations =  1.0

     total cpu time spent up to now is       11.9 secs

     total energy              =    -156.01746085 Ry
     estimated scf accuracy    <       0.04059970 Ry

     iteration #  3     ecut=   200.00 Ry     beta= 0.70
     Davidson diagonalization with overlap
     ethr =  1.62E-04,  avg # of iterations =  2.0

     total cpu time spent up to now is       14.7 secs

     total energy              =    -156.02247874 Ry
     estimated scf accuracy    <       0.00454262 Ry

     iteration #  4     ecut=   200.00 Ry     beta= 0.70
     Davidson diagonalization with overlap
     ethr =  1.82E-05,  avg # of iterations =  3.9

     total cpu time spent up to now is       18.1 secs

     total energy              =    -156.02250784 Ry
     estimated scf accuracy    <       0.00194337 Ry

     iteration #  5     ecut=   200.00 Ry     beta= 0.70
     Davidson diagonalization with overlap
     ethr =  7.77E-06,  avg # of iterations =  2.1

     total cpu time spent up to now is       20.9 secs

     total energy              =    -156.02260623 Ry
     estimated scf accuracy    <       0.00070256 Ry

     iteration #  6     ecut=   200.00 Ry     beta= 0.70
     Davidson diagonalization with overlap
     ethr =  2.81E-06,  avg # of iterations =  2.7

     total cpu time spent up to now is       23.9 secs

     total energy              =    -156.02278951 Ry
     estimated scf accuracy    <       0.00023109 Ry

     iteration #  7     ecut=   200.00 Ry     beta= 0.70
     Davidson diagonalization with overlap
     ethr =  9.24E-07,  avg # of iterations =  3.6

     total cpu time spent up to now is       27.2 secs

     total energy              =    -156.02285654 Ry
     estimated scf accuracy    <       0.00005926 Ry

     iteration #  8     ecut=   200.00 Ry     beta= 0.70
     Davidson diagonalization with overlap
     ethr =  2.37E-07,  avg # of iterations =  2.0

     negative rho (up, down):  1.541E-07 0.000E+00

     total cpu time spent up to now is       30.2 secs

     total energy              =    -156.02286286 Ry
     estimated scf accuracy    <       0.00001199 Ry

     iteration #  9     ecut=   200.00 Ry     beta= 0.70
     Davidson diagonalization with overlap
     ethr =  4.80E-08,  avg # of iterations =  3.6

     negative rho (up, down):  4.745E-07 0.000E+00

     total cpu time spent up to now is       33.8 secs

     total energy              =    -156.02286688 Ry
     estimated scf accuracy    <       0.00000050 Ry

     iteration # 10     ecut=   200.00 Ry     beta= 0.70
     Davidson diagonalization with overlap
     ethr =  2.00E-09,  avg # of iterations =  3.8

     negative rho (up, down):  1.128E-06 0.000E+00

     total cpu time spent up to now is       37.6 secs

     total energy              =    -156.02286707 Ry
     estimated scf accuracy    <       0.00000007 Ry

     iteration # 11     ecut=   200.00 Ry     beta= 0.70
     Davidson diagonalization with overlap
     ethr =  2.98E-10,  avg # of iterations =  2.7

     negative rho (up, down):  1.055E-06 0.000E+00

     total cpu time spent up to now is       40.9 secs

     total energy              =    -156.02286709 Ry
     estimated scf accuracy    <          1.3E-09 Ry

     iteration # 12     ecut=   200.00 Ry     beta= 0.70
     Davidson diagonalization with overlap
     ethr =  5.17E-12,  avg # of iterations =  5.3

     negative rho (up, down):  1.207E-06 0.000E+00

     total cpu time spent up to now is       45.6 secs

     total energy              =    -156.02286709 Ry
     estimated scf accuracy    <          9.2E-10 Ry

     iteration # 13     ecut=   200.00 Ry     beta= 0.70
     Davidson diagonalization with overlap
     ethr =  3.66E-12,  avg # of iterations =  2.0

     negative rho (up, down):  1.100E-06 0.000E+00

     total cpu time spent up to now is       48.8 secs

     total energy              =    -156.02286709 Ry
     estimated scf accuracy    <          1.2E-11 Ry

     iteration # 14     ecut=   200.00 Ry     beta= 0.70
     Davidson diagonalization with overlap
     ethr =  1.00E-13,  avg # of iterations =  4.8

     negative rho (up, down):  1.107E-06 0.000E+00

     total cpu time spent up to now is       53.3 secs

     total energy              =    -156.02286709 Ry
     estimated scf accuracy    <          2.6E-11 Ry

     iteration # 15     ecut=   200.00 Ry     beta= 0.70
     Davidson diagonalization with overlap
     ethr =  1.00E-13,  avg # of iterations =  2.0

     negative rho (up, down):  1.114E-06 0.000E+00

     total cpu time spent up to now is       56.2 secs

     total energy              =    -156.02286709 Ry
     estimated scf accuracy    <          2.8E-12 Ry

     iteration # 16     ecut=   200.00 Ry     beta= 0.70
     Davidson diagonalization with overlap
     ethr =  1.00E-13,  avg # of iterations =  1.0

     negative rho (up, down):  1.115E-06 0.000E+00

     total cpu time spent up to now is       58.6 secs

     End of self-consistent calculation

          k = 0.0000 0.0000 0.0000 ( 46815 PWs)   bands (ev):

   -53.9278 -30.0028 -29.9007 -29.9007 -12.3889 -11.4314  -3.6647  -0.6965
    -0.6965  -0.2167   0.2647   0.2647   1.7285   4.0516   4.0516   4.2387
     4.2387

          k = 0.0000 0.0385 0.0000 ( 46739 PWs)   bands (ev):

   -53.9276 -30.0022 -29.9034 -29.9013 -12.3766 -11.4258  -3.6480  -0.7396
    -0.6840  -0.2772   0.2398   0.2984   1.7198   4.0178   4.0789   4.1824
     4.2217

          k = 0.0000 0.0770 0.0000 ( 46727 PWs)   bands (ev):

   -53.9270 -30.0006 -29.9112 -29.9031 -12.3400 -11.4091  -3.5987  -0.8634
    -0.6469  -0.4210   0.1684   0.3587   1.6914   3.9351   4.0445   4.1571
     4.1731

          k = 0.0000 0.1155 0.0000 ( 46731 PWs)   bands (ev):

   -53.9259 -29.9979 -29.9237 -29.9059 -12.2802 -11.3819  -3.5188  -1.0536
    -0.6054  -0.5868   0.0591   0.3966   1.6372   3.8457   3.8793   4.0988
     4.2760

          k = 0.0000 0.1540 0.0000 ( 46703 PWs)   bands (ev):

   -53.9246 -29.9943 -29.9405 -29.9097 -12.1988 -11.3447  -3.4126  -1.2915
    -0.8138  -0.5060  -0.0769   0.3908   1.5504   3.7290   3.7913   4.0076
     4.4225

          k = 0.0000 0.1925 0.0000 ( 46717 PWs)   bands (ev):

   -53.9229 -29.9900 -29.9607 -29.9143 -12.0980 -11.2989  -3.2868  -1.5573
    -1.0403  -0.4082  -0.2285   0.3395   1.4283   3.6194   3.7964   3.9091
     4.5829

          k = 0.0000 0.2309 0.0000 ( 46684 PWs)   bands (ev):

   -53.9210 -29.9850 -29.9835 -29.9195 -11.9809 -11.2456  -3.1529  -1.8310
    -1.2815  -0.3862  -0.2977   0.2549   1.2783   3.5612   3.8127   3.8647
     4.7454

          k = 0.0000 0.2694 0.0000 ( 46710 PWs)   bands (ev):

   -53.9190 -30.0077 -29.9798 -29.9251 -11.8513 -11.1869  -3.0323  -2.0873
    -1.5330  -0.5420  -0.1800   0.1546   1.1179   3.5522   3.7267   3.9852
     4.9004

          k = 0.0000 0.3079 0.0000 ( 46716 PWs)   bands (ev):

   -53.9170 -30.0323 -29.9744 -29.9307 -11.7137 -11.1248  -2.9709  -2.2811
    -1.7878  -0.6900  -0.0611   0.0545   0.9700   3.5829   3.6578   4.1405
     5.0413

          k = 0.0000 0.3464 0.0000 ( 46710 PWs)   bands (ev):

   -53.9150 -30.0563 -29.9691 -29.9362 -11.5736 -11.0618  -3.0336  -2.3509
    -2.0364  -0.8254  -0.0352   0.0526   0.8565   3.6101   3.6414   4.3120
     5.1637

          k = 0.0000 0.3849 0.0000 ( 46748 PWs)   bands (ev):

   -53.9131 -30.0786 -29.9642 -29.9414 -11.4371 -11.0009  -3.1974  -2.3228
    -2.2686  -0.9449  -0.1097   0.1555   0.7925   3.5849   3.7168   4.4828
     5.2658

          k = 0.0000 0.4234 0.0000 ( 46722 PWs)   bands (ev):

   -53.9114 -30.0983 -29.9598 -29.9460 -11.3111 -10.9452  -3.3842  -2.4743
    -2.2736  -1.0457  -0.1680   0.2428   0.7820   3.5801   3.7994   4.6380
     5.3471

          k = 0.0000 0.4619 0.0000 ( 46726 PWs)   bands (ev):

   -53.9100 -30.1145 -29.9562 -29.9497 -11.2027 -10.8977  -3.5526  -2.6444
    -2.2363  -1.1259  -0.2109   0.3116   0.8148   3.5899   3.8805   4.7661
     5.4084

          k = 0.0000 0.5004 0.0000 ( 46720 PWs)   bands (ev):

   -53.9090 -30.1266 -29.9535 -29.9525 -11.1191 -10.8613  -3.6835  -2.7714
    -2.2157  -1.1841  -0.2399   0.3607   0.8685   3.6063   3.9511   4.8599
     5.4509

          k = 0.0000 0.5389 0.0000 ( 46722 PWs)   bands (ev):

   -53.9084 -30.1340 -29.9543 -29.9518 -11.0661 -10.8384  -3.7661  -2.8499
    -2.2070  -1.2193  -0.2565   0.3899   0.9159   3.6206   4.0006   4.9162
     5.4759

          k = 0.0000-0.5774 0.0000 ( 46676 PWs)   bands (ev):

   -53.9082 -30.1366 -29.9549 -29.9512 -11.0480 -10.8306  -3.7943  -2.8765
    -2.2048  -1.2312  -0.2619   0.3996   0.9346   3.6262   4.0187   4.9349
     5.4841

          k = 0.0333 0.0577 0.0000 ( 46739 PWs)   bands (ev):

   -53.9272 -30.0011 -29.9086 -29.9025 -12.3522 -11.4146  -3.6150  -0.8228
    -0.6595  -0.3766   0.1874   0.3471   1.7012   3.9584   4.0867   4.1330
     4.1883

          k = 0.0333 0.0962 0.0000 ( 46706 PWs)   bands (ev):

   -53.9264 -29.9990 -29.9187 -29.9049 -12.3040 -11.3927  -3.5503  -0.9789
    -0.6116  -0.5335   0.0862   0.4004   1.6600   3.8696   3.9391   4.1254
     4.2347

          k = 0.0333 0.1347 0.0000 ( 46698 PWs)   bands (ev):

   -53.9252 -29.9958 -29.9333 -29.9083 -12.2333 -11.3605  -3.4571  -1.1915
    -0.7217  -0.5425  -0.0501   0.4232   1.5894   3.7851   3.7946   4.0417
     4.3710

          k = 0.0333 0.1732 0.0000 ( 46718 PWs)   bands (ev):

   -53.9236 -29.9919 -29.9517 -29.9126 -12.1422 -11.3190  -3.3406  -1.4414
    -0.9319  -0.4555  -0.2071   0.4020   1.4846   3.6571   3.7673   3.9475
     4.5278

          k = 0.0333 0.2117 0.0000 ( 46697 PWs)   bands (ev):

   -53.9219 -29.9872 -29.9730 -29.9176 -12.0332 -11.2694  -3.2095  -1.7092
    -1.1608  -0.3711  -0.3548   0.3395   1.3481   3.5725   3.8022   3.8537
     4.6918

          k = 0.0333 0.2502 0.0000 ( 46701 PWs)   bands (ev):

   -53.9199 -29.9963 -29.9821 -29.9232 -11.9098 -11.2133  -3.0792  -1.9736
    -1.4052  -0.5312  -0.2461   0.2490   1.1932   3.5338   3.7711   3.8958
     4.8518

          k = 0.0333 0.2887 0.0000 ( 46719 PWs)   bands (ev):

   -53.9179 -30.0206 -29.9768 -29.9289 -11.7761 -11.1528  -2.9811  -2.2017
    -1.6590  -0.6802  -0.1360   0.1469   1.0411   3.5309   3.7113   4.0339
     4.9995

          k = 0.0333 0.3272 0.0000 ( 46713 PWs)   bands (ev):

   -53.9159 -30.0448 -29.9715 -29.9347 -11.6371 -11.0901  -2.9777  -2.3335
    -1.9130  -0.8145  -0.0315   0.0466   0.9158   3.5437   3.6893   4.1988
     5.1288

          k = 0.0333 0.3657 0.0000 ( 46738 PWs)   bands (ev):

   -53.9139 -30.0678 -29.9664 -29.9402 -11.4986 -11.0280  -3.1015  -2.3403
    -2.1562  -0.9321  -0.0430   0.0610   0.8365   3.5531   3.7153   4.3733
     5.2361

          k = 0.0333 0.4041 0.0000 ( 46742 PWs)   bands (ev):

   -53.9121 -30.0886 -29.9617 -29.9452 -11.3670 -10.9695  -3.2829  -2.3777
    -2.2934  -1.0321  -0.1176   0.1383   0.8120   3.5631   3.7743   4.5421
     5.3193

          k = 0.0333 0.4426 0.0000 ( 46727 PWs)   bands (ev):

   -53.9106 -30.1064 -29.9577 -29.9494 -11.2494 -10.9177  -3.4618  -2.5676
    -2.2482  -1.1136  -0.1758   0.2009   0.8356   3.5802   3.8465   4.6925
     5.3784

          k = 0.0333 0.4811 0.0000 ( 46751 PWs)   bands (ev):

   -53.9094 -30.1205 -29.9545 -29.9528 -11.1531 -10.8755  -3.6114  -2.7178
    -2.2197  -1.1756  -0.2180   0.2498   0.8879   3.6008   3.9192   4.8146
     5.4152

          k = 0.0333 0.5196 0.0000 ( 46737 PWs)   bands (ev):

   -53.9086 -30.1302 -29.9552 -29.9523 -11.0844 -10.8457  -3.7179  -2.8216
    -2.2062  -1.2174  -0.2452   0.2839   0.9439   3.6185   3.9806   4.9008
     5.4342

          k = 0.0333 0.5581 0.0000 ( 46708 PWs)   bands (ev):

   -53.9082 -30.1351 -29.9563 -29.9512 -11.0487 -10.8303  -3.7731  -2.8746
    -2.2015  -1.2385  -0.2585   0.3015   0.9796   3.6283   4.0168   4.9457
     5.4414

          k = 0.0667 0.1155 0.0000 ( 46683 PWs)   bands (ev):

   -53.9254 -29.9963 -29.9307 -29.9079 -12.2450 -11.3658  -3.4722  -1.1558
    -0.6849  -0.5562  -0.0568   0.4452   1.6022   3.7914   3.8074   4.0513
     4.3583

          k = 0.0667 0.1540 0.0000 ( 46689 PWs)   bands (ev):

   -53.9240 -29.9928 -29.9467 -29.9120 -12.1646 -11.3292  -3.3681  -1.3775
    -0.8611  -0.4839  -0.2353   0.4623   1.5133   3.6806   3.7386   3.9637
     4.5109

          k = 0.0667 0.1925 0.0000 ( 46682 PWs)   bands (ev):

   -53.9224 -29.9886 -29.9660 -29.9170 -12.0652 -11.2839  -3.2448  -1.6256
    -1.0602  -0.4247  -0.3993   0.4390   1.3934   3.5793   3.7368   3.8771
     4.6765

          k = 0.0667 0.2309 0.0000 ( 46715 PWs)   bands (ev):

   -53.9205 -29.9876 -29.9838 -29.9227 -11.9498 -11.2314  -3.1137  -1.8812
    -1.2838  -0.6039  -0.3087   0.3769   1.2514   3.5118   3.7942   3.8051
     4.8415

          k = 0.0667 0.2694 0.0000 ( 46710 PWs)   bands (ev):

   -53.9186 -30.0107 -29.9786 -29.9287 -11.8221 -11.1734  -2.9964  -2.1190
    -1.5289  -0.7602  -0.2200   0.2870   1.1063   3.4761   3.7585   3.9041
     4.9953

          k = 0.0667 0.3079 0.0000 ( 46731 PWs)   bands (ev):

   -53.9166 -30.0341 -29.9733 -29.9349 -11.6867 -11.1121  -2.9407  -2.2926
    -1.7853  -0.8904  -0.1419   0.1833   0.9820   3.4664   3.7423   4.0522
     5.1299

          k = 0.0667 0.3464 0.0000 ( 46709 PWs)   bands (ev):

   -53.9146 -30.0570 -29.9682 -29.9410 -11.5488 -11.0500  -3.0084  -2.3436
    -2.0390  -0.9968  -0.0807   0.0782   0.9003   3.4790   3.7537   4.2223
     5.2395

          k = 0.0667 0.3849 0.0000 ( 46724 PWs)   bands (ev):

   -53.9128 -30.0782 -29.9633 -29.9466 -11.4147 -10.9899  -3.1688  -2.3066
    -2.2767  -1.0827  -0.0364  -0.0192   0.8720   3.5107   3.7853   4.3996
     5.3196

          k = 0.0667 0.4234 0.0000 ( 46705 PWs)   bands (ev):

   -53.9111 -30.0969 -29.9591 -29.9516 -11.2909 -10.9349  -3.3477  -2.4869
    -2.2551  -1.1505  -0.1031  -0.0020   0.8921   3.5535   3.8319   4.5715
     5.3678

          k = 0.0667 0.4619 0.0000 ( 46727 PWs)   bands (ev):

   -53.9098 -30.1124 -29.9557 -29.9555 -11.1846 -10.8880  -3.5081  -2.6602
    -2.2183  -1.2021  -0.1701   0.0284   0.9445   3.5935   3.8915   4.7282
     5.3844

          k = 0.0667 0.5004 0.0000 ( 46739 PWs)   bands (ev):

   -53.9088 -30.1239 -29.9587 -29.9529 -11.1027 -10.8521  -3.6325  -2.7893
    -2.1991  -1.2385  -0.2184   0.0545   1.0076   3.6191   3.9583   4.8607
     5.3743

          k = 0.0667 0.5389 0.0000 ( 46734 PWs)   bands (ev):

   -53.9082 -30.1310 -29.9606 -29.9512 -11.0508 -10.8295  -3.7110  -2.8690
    -2.1916  -1.2602  -0.2475   0.0725   1.0585   3.6298   4.0141   4.9566
     5.3503

          k = 0.0667 0.5774 0.0000 ( 46734 PWs)   bands (ev):

   -53.9079 -30.1334 -29.9613 -29.9507 -11.0330 -10.8218  -3.7378  -2.8959
    -2.1900  -1.2674  -0.2572   0.0789   1.0780   3.6322   4.0363   4.9941
     5.3364

          k = 0.1000 0.1732 0.0000 ( 46673 PWs)   bands (ev):

   -53.9226 -29.9890 -29.9635 -29.9170 -12.0760 -11.2888  -3.2568  -1.5956
    -1.0172  -0.4571  -0.4162   0.4802   1.4090   3.5821   3.7091   3.8839
     4.6748

          k = 0.1000 0.2117 0.0000 ( 46675 PWs)   bands (ev):

   -53.9209 -29.9846 -29.9828 -29.9228 -11.9701 -11.2405  -3.1317  -1.8288
    -1.1971  -0.6775  -0.3465   0.4608   1.2830   3.4991   3.7271   3.8210
     4.8441

          k = 0.1000 0.2502 0.0000 ( 46692 PWs)   bands (ev):

   -53.9190 -30.0038 -29.9797 -29.9293 -11.8503 -11.1860  -3.0085  -2.0568
    -1.4127  -0.8637  -0.2843   0.4032   1.1508   3.4385   3.7855   3.7983
     5.0047

          k = 0.1000 0.2887 0.0000 ( 46694 PWs)   bands (ev):

   -53.9171 -30.0257 -29.9746 -29.9361 -11.7207 -11.1271  -2.9210  -2.2451
    -1.6608  -1.0030  -0.2394   0.3158   1.0346   3.4070   3.7771   3.9163
     5.1461

          k = 0.1000 0.3272 0.0000 ( 46720 PWs)   bands (ev):

   -53.9151 -30.0475 -29.9695 -29.9430 -11.5861 -11.0661  -2.9322  -2.3338
    -1.9215  -1.1032  -0.2181   0.2109   0.9555   3.4097   3.7881   4.0680
     5.2607

          k = 0.1000 0.3657 0.0000 ( 46726 PWs)   bands (ev):

   -53.9133 -30.0682 -29.9646 -29.9495 -11.4522 -11.0057  -3.0565  -2.3134
    -2.1743  -1.1749  -0.2172   0.1004   0.9254   3.4469   3.8096   4.2391
     5.3428

          k = 0.1000 0.4041 0.0000 ( 46712 PWs)   bands (ev):

   -53.9116 -30.0870 -29.9602 -29.9555 -11.3253 -10.9488  -3.2232  -2.4041
    -2.2576  -1.2255  -0.2242  -0.0056   0.9415   3.5095   3.8370   4.4167
     5.3885

          k = 0.1000 0.4426 0.0000 ( 46707 PWs)   bands (ev):

   -53.9101 -30.1031 -29.9606 -29.9564 -11.2122 -10.8984  -3.3840  -2.6001
    -2.2118  -1.2599  -0.2272  -0.0993   0.9919   3.5751   3.8765   4.5907
     5.3963

          k = 0.1000 0.4811 0.0000 ( 46727 PWs)   bands (ev):

   -53.9089 -30.1157 -29.9646 -29.9533 -11.1197 -10.8574  -3.5177  -2.7541
    -2.1859  -1.2819  -0.2232  -0.1749   1.0595   3.6142   3.9404   4.7535
     5.3684

          k = 0.1000 0.5196 0.0000 ( 46725 PWs)   bands (ev):

   -53.9082 -30.1245 -29.9674 -29.9512 -11.0539 -10.8284  -3.6126  -2.8601
    -2.1756  -1.2946  -0.2279  -0.2158   1.1239   3.6216   4.0167   4.8971
     5.3122

          k = 0.1000 0.5581 0.0000 ( 46730 PWs)   bands (ev):

   -53.9077 -30.1289 -29.9688 -29.9502 -11.0197 -10.8134  -3.6619  -2.9142
    -2.1730  -1.3002  -0.2552  -0.2106   1.1634   3.6172   4.0688   5.0017
     5.2502

          k = 0.1333 0.2309 0.0000 ( 46695 PWs)   bands (ev):

   -53.9191 -30.0014 -29.9801 -29.9297 -11.8598 -11.1902  -3.0130  -2.0336
    -1.3580  -0.9165  -0.3083   0.4476   1.1665   3.4252   3.7577   3.7940
     5.0098

          k = 0.1333 0.2694 0.0000 ( 46702 PWs)   bands (ev):

   -53.9173 -30.0210 -29.9753 -29.9372 -11.7380 -11.1346  -2.9132  -2.2135
    -1.5679  -1.0957  -0.2962   0.3955   1.0630   3.3747   3.7937   3.8349
     5.1588

          k = 0.1333 0.3079 0.0000 ( 46715 PWs)   bands (ev):

   -53.9154 -30.0408 -29.9704 -29.9450 -11.6090 -11.0759  -2.8837  -2.3188
    -1.8197  -1.2076  -0.3167   0.3111   0.9913   3.3626   3.8093   3.9535
     5.2812

          k = 0.1333 0.3464 0.0000 ( 46705 PWs)   bands (ev):

   -53.9136 -30.0601 -29.9655 -29.9528 -11.4781 -11.0165  -2.9647  -2.3148
    -2.0804  -1.2747  -0.3646   0.2056   0.9624   3.3947   3.8298   4.1020
     5.3706

          k = 0.1333 0.3849 0.0000 ( 46707 PWs)   bands (ev):

   -53.9119 -30.0779 -29.9610 -29.9600 -11.3511 -10.9590  -3.1066  -2.3258
    -2.2567  -1.3136  -0.4231   0.0912   0.9755   3.4644   3.8491   4.2672
     5.4232

          k = 0.1333 0.4234 0.0000 ( 46711 PWs)   bands (ev):

   -53.9104 -30.0936 -29.9665 -29.9570 -11.2343 -10.9063  -3.2552  -2.5414
    -2.2011  -1.3329  -0.4739  -0.0210   1.0230   3.5477   3.8741   4.4375
     5.4375

          k = 0.1333 0.4619 0.0000 ( 46705 PWs)   bands (ev):

   -53.9091 -30.1066 -29.9719 -29.9537 -11.1343 -10.8615  -3.3861  -2.7181
    -2.1672  -1.3389  -0.5074  -0.1212   1.0930   3.6002   3.9316   4.6029
     5.4157

          k = 0.1333 0.5004 0.0000 ( 46733 PWs)   bands (ev):

   -53.9082 -30.1162 -29.9759 -29.9512 -11.0574 -10.8271  -3.4872  -2.8490
    -2.1536  -1.3371  -0.5243  -0.2008   1.1685   3.6004   4.0267   4.7539
     5.3649

          k = 0.1333 0.5389 0.0000 ( 46740 PWs)   bands (ev):

   -53.9076 -30.1221 -29.9784 -29.9497 -11.0088 -10.8055  -3.5508  -2.9295
    -2.1511  -1.3331  -0.5309  -0.2522   1.2280   3.5791   4.1142   4.8751
     5.3021

          k = 0.1333 0.5774 0.0000 ( 46724 PWs)   bands (ev):

   -53.9074 -30.1241 -29.9792 -29.9492 -10.9922 -10.7982  -3.5725  -2.9567
    -2.1514  -1.3312  -0.5324  -0.2701   1.2508   3.5681   4.1492   4.9283
     5.2680

          k = 0.1667 0.2887 0.0000 ( 46709 PWs)   bands (ev):

   -53.9155 -30.0384 -29.9706 -29.9459 -11.6168 -11.0792  -2.8674  -2.3116
    -1.7744  -1.2552  -0.3526   0.3483   1.0036   3.3460   3.8163   3.9112
     5.2892

          k = 0.1667 0.3272 0.0000 ( 46693 PWs)   bands (ev):

   -53.9138 -30.0554 -29.9660 -29.9550 -11.4913 -11.0219  -2.9125  -2.3138
    -2.0185  -1.3433  -0.4480   0.2668   0.9810   3.3660   3.8405   4.0233
     5.3882

          k = 0.1667 0.3657 0.0000 ( 46695 PWs)   bands (ev):

   -53.9121 -30.0713 -29.9639 -29.9615 -11.3670 -10.9652  -3.0211  -2.2654
    -2.2542  -1.3858  -0.5631   0.1618   0.9948   3.4323   3.8588   4.1608
     5.4522

          k = 0.1667 0.4041 0.0000 ( 46699 PWs)   bands (ev):

   -53.9105 -30.0856 -29.9721 -29.9575 -11.2497 -10.9117  -3.1444  -2.4921
    -2.1885  -1.4000  -0.6740   0.0457   1.0406   3.5219   3.8772   4.3109
     5.4808

          k = 0.1667 0.4426 0.0000 ( 46719 PWs)   bands (ev):

   -53.9092 -30.0977 -29.9793 -29.9540 -11.1456 -10.8644  -3.2579  -2.6856
    -2.1440  -1.3955  -0.7624  -0.0692   1.1117   3.5814   3.9303   4.4613
     5.4769

          k = 0.1667 0.4811 0.0000 ( 46723 PWs)   bands (ev):

   -53.9082 -30.1072 -29.9851 -29.9513 -11.0607 -10.8259  -3.3502  -2.8374
    -2.1253  -1.3805  -0.8212  -0.1708   1.1962   3.5721   4.0408   4.6001
     5.4476

          k = 0.1667 0.5196 0.0000 ( 46727 PWs)   bands (ev):

   -53.9074 -30.1137 -29.9891 -29.9493 -11.0007 -10.7987  -3.4151  -2.9418
    -2.1240  -1.3632  -0.8538  -0.2477   1.2746   3.5280   4.1622   4.7134
     5.4060

          k = 0.1667 0.5581 0.0000 ( 46731 PWs)   bands (ev):

   -53.9071 -30.1171 -29.9912 -29.9484 -10.9695 -10.7846  -3.4485  -2.9949
    -2.1275  -1.3517  -0.8675  -0.2894   1.3228   3.4934   4.2396   4.7808
     5.3736

          k = 0.2000 0.3464 0.0000 ( 46683 PWs)   bands (ev):

   -53.9121 -30.0689 -29.9654 -29.9617 -11.3724 -10.9673  -2.9893  -2.2528
    -2.2419  -1.4143  -0.6141   0.1876   1.0009   3.4209   3.8624   4.1223
     5.4632

          k = 0.2000 0.3849 0.0000 ( 46701 PWs)   bands (ev):

   -53.9106 -30.0809 -29.9757 -29.9577 -11.2576 -10.9144  -3.0788  -2.4630
    -2.1791  -1.4404  -0.7889   0.0839   1.0483   3.5067   3.8801   4.2401
     5.5070

          k = 0.2000 0.4234 0.0000 ( 46713 PWs)   bands (ev):

   -53.9093 -30.0910 -29.9852 -29.9542 -11.1527 -10.8661  -3.1608  -2.6624
    -2.1212  -1.4372  -0.9473  -0.0314   1.1207   3.5661   3.9319   4.3638
     5.5237

          k = 0.2000 0.4619 0.0000 ( 46733 PWs)   bands (ev):

   -53.9082 -30.0991 -29.9934 -29.9513 -11.0633 -10.8249  -3.2270  -2.8276
    -2.0922  -1.4161  -1.0700  -0.1448   1.2117   3.5464   4.0535   4.4804
     5.5196

          k = 0.2000 0.5004 0.0000 ( 46737 PWs)   bands (ev):

   -53.9073 -30.1050 -29.9996 -29.9491 -10.9950 -10.7934  -3.2743  -2.9507
    -2.0904  -1.3877  -1.1496  -0.2420   1.3065   3.4785   4.2025   4.5775
     5.5035

          k = 0.2000 0.5389 0.0000 ( 46736 PWs)   bands (ev):

   -53.9068 -30.1085 -30.0036 -29.9477 -10.9520 -10.7736  -3.3024  -3.0266
    -2.1009  -1.3634  -1.1909  -0.3089   1.3812   3.4127   4.3212   4.6430
     5.4863

          k = 0.2000 0.5774 0.0000 ( 46757 PWs)   bands (ev):

   -53.9066 -30.1097 -30.0050 -29.9473 -10.9374 -10.7669  -3.3116  -3.0523
    -2.1067  -1.3537  -1.2033  -0.3329   1.4100   3.3858   4.3667   4.6664
     5.4789

          k = 0.2333 0.4041 0.0000 ( 46711 PWs)   bands (ev):

   -53.9093 -30.0885 -29.9875 -29.9542 -11.1551 -10.8666  -3.1241  -2.6539
    -2.1107  -1.4526  -1.0166  -0.0176   1.1233   3.5603   3.9328   4.3293
     5.5410

          k = 0.2333 0.4426 0.0000 ( 46750 PWs)   bands (ev):

   -53.9082 -30.0941 -29.9985 -29.9513 -11.0648 -10.8244  -3.1513  -2.8219
    -2.0648  -1.4362  -1.2207  -0.1296   1.2185   3.5314   4.0607   4.4159
     5.5604

          k = 0.2333 0.4811 0.0000 ( 46727 PWs)   bands (ev):

   -53.9073 -30.0979 -30.0079 -29.9489 -10.9917 -10.7901  -3.1611  -2.9562
    -2.0519  -1.4038  -1.3768  -0.2373   1.3254   3.4433   4.2287   4.4891
     5.5708

          k = 0.2333 0.5196 0.0000 ( 46728 PWs)   bands (ev):

   -53.9066 -30.1000 -30.0148 -29.9473 -10.9402 -10.7658  -3.1589  -3.0494
    -2.0687  -1.4714  -1.3689  -0.3243   1.4240   3.3454   4.3813   4.5414
     5.5759

          k = 0.2333 0.5581 0.0000 ( 46722 PWs)   bands (ev):

   -53.9063 -30.1010 -30.0185 -29.9464 -10.9136 -10.7533  -3.1540  -3.0972
    -2.0902  -1.5117  -1.3460  -0.3739   1.4854   3.2812   4.4730   4.5685
     5.5779

          k = 0.2667 0.4619 0.0000 ( 46717 PWs)   bands (ev):

   -53.9072 -30.0950 -30.0111 -29.9488 -10.9906 -10.7889  -3.1163  -2.9580
    -2.0301  -1.4690  -1.4094  -0.2354   1.3317   3.4306   4.2377   4.4586
     5.5948

          k = 0.2667 0.5004 0.0000 ( 46747 PWs)   bands (ev):

   -53.9065 -30.0942 -30.0220 -29.9470 -10.9343 -10.7618  -3.0627  -3.0614
    -2.0331  -1.6570  -1.3709  -0.3327   1.4471   3.3072   4.4128   4.4880
     5.6252

          k = 0.2667 0.5389 0.0000 ( 46731 PWs)   bands (ev):

   -53.9061 -30.0929 -30.0296 -29.9459 -10.8991 -10.7448  -3.1258  -3.0090
    -2.0789  -1.7515  -1.3366  -0.4034   1.5390   3.2043   4.5045   4.5428
     5.6465

          k = 0.2667 0.5774 0.0000 ( 46725 PWs)   bands (ev):

   -53.9060 -30.0922 -30.0324 -29.9455 -10.8871 -10.7390  -3.1477  -2.9850
    -2.1098  -1.7741  -1.3227  -0.4296   1.5751   3.1636   4.5097   4.5913
     5.6543

          k = 0.3000 0.5196 0.0000 ( 46719 PWs)   bands (ev):

   -53.9060 -30.0892 -30.0343 -29.9457 -10.8942 -10.7419  -3.1356  -2.9438
    -2.0742  -1.8496  -1.3326  -0.4141   1.5587   3.1759   4.4824   4.5670
     5.6710

          k = 0.3000 0.5581 0.0000 ( 46729 PWs)   bands (ev):

   -53.9058 -30.0849 -30.0423 -29.9451 -10.8735 -10.7316  -3.1740  -2.8437
    -2.1817  -1.9015  -1.3064  -0.4623   1.6294   3.0924   4.4778   4.6562
     5.6972

          k = 0.3333 0.5774 0.0000 ( 46797 PWs)   bands (ev):

   -53.9057 -30.0806 -30.0482 -29.9448 -10.8649 -10.7271  -3.1904  -2.7476
    -2.2812  -1.9280  -1.2939  -0.4845   1.6650   3.0488   4.4682   4.6972
     5.7155

     the Fermi energy is     1.1346 ev

!    total energy              =    -156.02286709 Ry
     estimated scf accuracy    <          1.1E-14 Ry
     smearing contrib. (-TS)   =      -0.00684936 Ry
     internal energy E=F+TS    =    -156.01601773 Ry

     The total energy is F=E-TS. E is the sum of the following terms:
     one-electron contribution =    -449.70420112 Ry
     hartree contribution      =     226.72631903 Ry
     xc contribution           =     -26.77409195 Ry
     ewald contribution        =      93.73595631 Ry

     convergence has been achieved in  16 iterations

     negative rho (up, down):  1.115E-06 0.000E+00

     Forces acting on atoms (cartesian axes, Ry/au):

     atom    1 type  1   force =     0.00000000    0.00000000    0.00000000
     atom    2 type  2   force =     0.00000000   -0.00000000    0.00000918
     atom    3 type  2   force =     0.00000000   -0.00000000   -0.00000918

     Total force =     0.000013     Total SCF correction =     0.000000


     Computing stress (Cartesian axis) and pressure


     negative rho (up, down):  1.115E-06 0.000E+00
          total   stress  (Ry/bohr**3)                   (kbar)     P=       -0.00
  -0.00000001  -0.00000000   0.00000000           -0.00       -0.00        0.00
  -0.00000000  -0.00000001   0.00000000           -0.00       -0.00        0.00
   0.00000000  -0.00000000  -0.00000000            0.00       -0.00       -0.00


     Writing all to output data dir ./outdir/0.008.save/
 
     init_run     :      2.73s CPU      2.84s WALL (       1 calls)
     electrons    :     54.43s CPU     55.38s WALL (       1 calls)
     forces       :      0.21s CPU      0.23s WALL (       1 calls)
     stress       :      0.59s CPU      0.61s WALL (       1 calls)

     Called by init_run:
     wfcinit      :      2.47s CPU      2.52s WALL (       1 calls)
     potinit      :      0.03s CPU      0.03s WALL (       1 calls)
     hinit0       :      0.12s CPU      0.17s WALL (       1 calls)

     Called by electrons:
     c_bands      :     43.89s CPU     44.58s WALL (      17 calls)
     sum_band     :      7.35s CPU      7.52s WALL (      17 calls)
     v_of_rho     :      0.13s CPU      0.13s WALL (      17 calls)
     newd         :      0.29s CPU      0.30s WALL (      17 calls)
     mix_rho      :      2.75s CPU      2.77s WALL (      17 calls)

     Called by c_bands:
     init_us_2    :      0.58s CPU      0.60s WALL (    3367 calls)
     init_us_2:cp :      0.57s CPU      0.59s WALL (    3367 calls)
     cegterg      :     41.41s CPU     42.04s WALL (    1547 calls)

     Called by *egterg:
     cdiaghg      :      1.88s CPU      1.94s WALL (    5831 calls)
     h_psi        :     36.34s CPU     36.79s WALL (    6013 calls)
     s_psi        :      0.85s CPU      0.89s WALL (    6013 calls)
     g_psi        :      0.09s CPU      0.09s WALL (    4375 calls)

     Called by h_psi:
     h_psi:calbec :      1.72s CPU      1.80s WALL (    6013 calls)
     vloc_psi     :     33.55s CPU     33.88s WALL (    6013 calls)
     add_vuspsi   :      0.92s CPU      0.96s WALL (    6013 calls)

     General routines
     calbec       :      2.35s CPU      2.48s WALL (    8015 calls)
     fft          :      0.13s CPU      0.14s WALL (     213 calls)
     ffts         :      1.94s CPU      1.96s WALL (    4258 calls)
     fftw         :     37.79s CPU     38.21s WALL (  171357 calls)
 
     Parallel routines
 
     PWSCF        :   1m 0.06s CPU   1m 5.98s WALL

 
   This run was terminated on:   8:52:20  18Jun2022            

=------------------------------------------------------------------------------=
   JOB DONE.
=------------------------------------------------------------------------------=
