
     Program PWSCF v.7.0 starts on 18Jun2022 at  9: 7:16 

     This program is part of the open-source Quantum ESPRESSO suite
     for quantum simulation of materials; please cite
         "P. Giannozzi et al., J. Phys.:Condens. Matter 21 395502 (2009);
         "P. Giannozzi et al., J. Phys.:Condens. Matter 29 465901 (2017);
         "P. Giannozzi et al., J. Chem. Phys. 152 154105 (2020);
          URL http://www.quantum-espresso.org", 
     in publications or presentations arising from this work. More details at
     http://www.quantum-espresso.org/quote

     Parallel version (MPI), running on    64 processors

     MPI processes distributed on     1 nodes
     456813 MiB available memory on the printing compute node when the environment starts
 
     Reading input from ./inputs/0.0001-scf.in
Warning: card &CELL ignored
Warning: card / ignored

     Current dimensions of program PWSCF are:
     Max number of different atomic species (ntypx) = 10
     Max number of k-points (npk) =  40000
     Max angular momentum in pseudopotentials (lmaxx) =  4

     File ./outdir/0.0001.update deleted, as requested
     file Nb.pbe-spn-rrkjus_psl.1.0.0.UPF: wavefunction(s)  4S 4P renormalized
     file Se.pbe-mt_fhi.UPF: wavefunction(s)  4f renormalized
     Message from routine setup:
     using ibrav=0 with symmetry is DISCOURAGED, use correct ibrav instead
 
     R & G space division:  proc/nbgrp/npool/nimage =      64
     Subspace diagonalization in iterative solution of the eigenvalue problem:
     a serial algorithm will be used

 
     Parallelization info
     --------------------
     sticks:   dense  smooth     PW     G-vecs:    dense   smooth      PW
     Min          37      37     10                 5819     5819     828
     Max          38      38     11                 5840     5840     847
     Sum        2383    2383    649               373429   373429   53367
 
     Using Slab Decomposition
 


     bravais-lattice index     =            0
     lattice parameter (alat)  =       6.5727  a.u.
     unit-cell volume          =     976.8703 (a.u.)^3
     number of atoms/cell      =            3
     number of atomic types    =            2
     number of electrons       =        25.00
     number of Kohn-Sham states=           17
     kinetic-energy cutoff     =     200.0000  Ry
     charge density cutoff     =     800.0000  Ry
     scf convergence threshold =      1.0E-12
     mixing beta               =       0.7000
     number of iterations used =            8  local-TF  mixing
     Exchange-correlation= PBE
                           (   1   4   3   4   0   0   0)

     celldm(1)=   6.572678  celldm(2)=   0.000000  celldm(3)=   0.000000
     celldm(4)=   0.000000  celldm(5)=   0.000000  celldm(6)=   0.000000

     crystal axes: (cart. coord. in units of alat)
               a(1) = (   1.000000   0.000000   0.000000 )  
               a(2) = (  -0.500000   0.866025   0.000000 )  
               a(3) = (   0.000000   0.000000   3.972640 )  

     reciprocal axes: (cart. coord. in units 2 pi/alat)
               b(1) = (  1.000000  0.577350  0.000000 )  
               b(2) = (  0.000000  1.154701  0.000000 )  
               b(3) = (  0.000000  0.000000  0.251722 )  


     PseudoPot. # 1 for Nb read from file:
     ./PP/Nb.pbe-spn-rrkjus_psl.1.0.0.UPF
     MD5 check sum: 6ee677a9f002bd3e3657f443f129faad
     Pseudo is Ultrasoft + core correction, Zval = 13.0
     Generated using &quot;atomic&quot; code by A. Dal Corso  v.6.2.2
     Using radial grid of 1227 points,  6 beta functions with: 
                l(1) =   0
                l(2) =   0
                l(3) =   1
                l(4) =   1
                l(5) =   2
                l(6) =   2
     Q(r) pseudized with 0 coefficients 


     PseudoPot. # 2 for Se read from file:
     ./PP/Se.pbe-mt_fhi.UPF
     MD5 check sum: 761aa2365a2a775fd78ad90d13f3567a
     Pseudo is Norm-conserving, Zval =  6.0
     Generated using FHI98PP, converted with fhi2upf.x v.5.0.2
     Using radial grid of  533 points,  3 beta functions with: 
                l(1) =   0
                l(2) =   1
                l(3) =   3

     atomic species   valence    mass     pseudopotential
        Nb            13.00    92.90000     Nb( 1.00)
        Se             6.00    78.96000     Se( 1.00)

     12 Sym. Ops. (no inversion) found



   Cartesian axes

     site n.     atom                  positions (alat units)
         1           Nb  tau(   1) = (   0.0000000   0.0000000   1.9863201  )
         2           Se  tau(   2) = (  -0.0000000   0.5773503   1.5033756  )
         3           Se  tau(   3) = (  -0.0000000   0.5773503   2.4692646  )

     number of k points=    91  Fermi-Dirac smearing, width (Ry)=  0.0001
                       cart. coord. in units 2pi/alat
        k(    1) = (   0.0000000   0.0000000   0.0000000), wk =   0.0022222
        k(    2) = (   0.0000000   0.0384900   0.0000000), wk =   0.0133333
        k(    3) = (   0.0000000   0.0769800   0.0000000), wk =   0.0133333
        k(    4) = (   0.0000000   0.1154701   0.0000000), wk =   0.0133333
        k(    5) = (   0.0000000   0.1539601   0.0000000), wk =   0.0133333
        k(    6) = (   0.0000000   0.1924501   0.0000000), wk =   0.0133333
        k(    7) = (   0.0000000   0.2309401   0.0000000), wk =   0.0133333
        k(    8) = (   0.0000000   0.2694301   0.0000000), wk =   0.0133333
        k(    9) = (   0.0000000   0.3079201   0.0000000), wk =   0.0133333
        k(   10) = (   0.0000000   0.3464102   0.0000000), wk =   0.0133333
        k(   11) = (   0.0000000   0.3849002   0.0000000), wk =   0.0133333
        k(   12) = (   0.0000000   0.4233902   0.0000000), wk =   0.0133333
        k(   13) = (   0.0000000   0.4618802   0.0000000), wk =   0.0133333
        k(   14) = (   0.0000000   0.5003702   0.0000000), wk =   0.0133333
        k(   15) = (   0.0000000   0.5388603   0.0000000), wk =   0.0133333
        k(   16) = (   0.0000000  -0.5773503   0.0000000), wk =   0.0066667
        k(   17) = (   0.0333333   0.0577350   0.0000000), wk =   0.0133333
        k(   18) = (   0.0333333   0.0962250   0.0000000), wk =   0.0266667
        k(   19) = (   0.0333333   0.1347151   0.0000000), wk =   0.0266667
        k(   20) = (   0.0333333   0.1732051   0.0000000), wk =   0.0266667
        k(   21) = (   0.0333333   0.2116951   0.0000000), wk =   0.0266667
        k(   22) = (   0.0333333   0.2501851   0.0000000), wk =   0.0266667
        k(   23) = (   0.0333333   0.2886751   0.0000000), wk =   0.0266667
        k(   24) = (   0.0333333   0.3271652   0.0000000), wk =   0.0266667
        k(   25) = (   0.0333333   0.3656552   0.0000000), wk =   0.0266667
        k(   26) = (   0.0333333   0.4041452   0.0000000), wk =   0.0266667
        k(   27) = (   0.0333333   0.4426352   0.0000000), wk =   0.0266667
        k(   28) = (   0.0333333   0.4811252   0.0000000), wk =   0.0266667
        k(   29) = (   0.0333333   0.5196152   0.0000000), wk =   0.0266667
        k(   30) = (   0.0333333   0.5581053   0.0000000), wk =   0.0266667
        k(   31) = (   0.0666667   0.1154701   0.0000000), wk =   0.0133333
        k(   32) = (   0.0666667   0.1539601   0.0000000), wk =   0.0266667
        k(   33) = (   0.0666667   0.1924501   0.0000000), wk =   0.0266667
        k(   34) = (   0.0666667   0.2309401   0.0000000), wk =   0.0266667
        k(   35) = (   0.0666667   0.2694301   0.0000000), wk =   0.0266667
        k(   36) = (   0.0666667   0.3079201   0.0000000), wk =   0.0266667
        k(   37) = (   0.0666667   0.3464102   0.0000000), wk =   0.0266667
        k(   38) = (   0.0666667   0.3849002   0.0000000), wk =   0.0266667
        k(   39) = (   0.0666667   0.4233902   0.0000000), wk =   0.0266667
        k(   40) = (   0.0666667   0.4618802   0.0000000), wk =   0.0266667
        k(   41) = (   0.0666667   0.5003702   0.0000000), wk =   0.0266667
        k(   42) = (   0.0666667   0.5388603   0.0000000), wk =   0.0266667
        k(   43) = (   0.0666667   0.5773503   0.0000000), wk =   0.0133333
        k(   44) = (   0.1000000   0.1732051   0.0000000), wk =   0.0133333
        k(   45) = (   0.1000000   0.2116951   0.0000000), wk =   0.0266667
        k(   46) = (   0.1000000   0.2501851   0.0000000), wk =   0.0266667
        k(   47) = (   0.1000000   0.2886751   0.0000000), wk =   0.0266667
        k(   48) = (   0.1000000   0.3271652   0.0000000), wk =   0.0266667
        k(   49) = (   0.1000000   0.3656552   0.0000000), wk =   0.0266667
        k(   50) = (   0.1000000   0.4041452   0.0000000), wk =   0.0266667
        k(   51) = (   0.1000000   0.4426352   0.0000000), wk =   0.0266667
        k(   52) = (   0.1000000   0.4811252   0.0000000), wk =   0.0266667
        k(   53) = (   0.1000000   0.5196152   0.0000000), wk =   0.0266667
        k(   54) = (   0.1000000   0.5581053   0.0000000), wk =   0.0266667
        k(   55) = (   0.1333333   0.2309401   0.0000000), wk =   0.0133333
        k(   56) = (   0.1333333   0.2694301   0.0000000), wk =   0.0266667
        k(   57) = (   0.1333333   0.3079201   0.0000000), wk =   0.0266667
        k(   58) = (   0.1333333   0.3464102   0.0000000), wk =   0.0266667
        k(   59) = (   0.1333333   0.3849002   0.0000000), wk =   0.0266667
        k(   60) = (   0.1333333   0.4233902   0.0000000), wk =   0.0266667
        k(   61) = (   0.1333333   0.4618802   0.0000000), wk =   0.0266667
        k(   62) = (   0.1333333   0.5003702   0.0000000), wk =   0.0266667
        k(   63) = (   0.1333333   0.5388603   0.0000000), wk =   0.0266667
        k(   64) = (   0.1333333   0.5773503   0.0000000), wk =   0.0133333
        k(   65) = (   0.1666667   0.2886751   0.0000000), wk =   0.0133333
        k(   66) = (   0.1666667   0.3271652   0.0000000), wk =   0.0266667
        k(   67) = (   0.1666667   0.3656552   0.0000000), wk =   0.0266667
        k(   68) = (   0.1666667   0.4041452   0.0000000), wk =   0.0266667
        k(   69) = (   0.1666667   0.4426352   0.0000000), wk =   0.0266667
        k(   70) = (   0.1666667   0.4811252   0.0000000), wk =   0.0266667
        k(   71) = (   0.1666667   0.5196152   0.0000000), wk =   0.0266667
        k(   72) = (   0.1666667   0.5581053   0.0000000), wk =   0.0266667
        k(   73) = (   0.2000000   0.3464102   0.0000000), wk =   0.0133333
        k(   74) = (   0.2000000   0.3849002   0.0000000), wk =   0.0266667
        k(   75) = (   0.2000000   0.4233902   0.0000000), wk =   0.0266667
        k(   76) = (   0.2000000   0.4618802   0.0000000), wk =   0.0266667
        k(   77) = (   0.2000000   0.5003702   0.0000000), wk =   0.0266667
        k(   78) = (   0.2000000   0.5388603   0.0000000), wk =   0.0266667
        k(   79) = (   0.2000000   0.5773503   0.0000000), wk =   0.0133333
        k(   80) = (   0.2333333   0.4041452   0.0000000), wk =   0.0133333
        k(   81) = (   0.2333333   0.4426352   0.0000000), wk =   0.0266667
        k(   82) = (   0.2333333   0.4811252   0.0000000), wk =   0.0266667
        k(   83) = (   0.2333333   0.5196152   0.0000000), wk =   0.0266667
        k(   84) = (   0.2333333   0.5581053   0.0000000), wk =   0.0266667
        k(   85) = (   0.2666667   0.4618802   0.0000000), wk =   0.0133333
        k(   86) = (   0.2666667   0.5003702   0.0000000), wk =   0.0266667
        k(   87) = (   0.2666667   0.5388603   0.0000000), wk =   0.0266667
        k(   88) = (   0.2666667   0.5773503   0.0000000), wk =   0.0133333
        k(   89) = (   0.3000000   0.5196152   0.0000000), wk =   0.0133333
        k(   90) = (   0.3000000   0.5581053   0.0000000), wk =   0.0266667
        k(   91) = (   0.3333333   0.5773503   0.0000000), wk =   0.0044444

     Dense  grid:   373429 G-vectors     FFT dimensions: (  60,  60, 240)

     Estimated max dynamical RAM per process >      47.82 MB

     Estimated total dynamical RAM >       2.99 GB

     Initial potential from superposition of free atoms

     starting charge      24.9985, renormalised to      25.0000

     negative rho (up, down):  2.485E-03 0.000E+00
     Starting wfcs are   45 randomized atomic wfcs

     total cpu time spent up to now is        3.0 secs

     Self-consistent Calculation

     iteration #  1     ecut=   200.00 Ry     beta= 0.70
     Davidson diagonalization with overlap
     ethr =  1.00E-02,  avg # of iterations =  1.9

     Threshold (ethr) on eigenvalues was too large:
     Diagonalizing with lowered threshold

     Davidson diagonalization with overlap
     ethr =  3.05E-04,  avg # of iterations =  3.2

     negative rho (up, down):  3.317E-06 0.000E+00

     total cpu time spent up to now is        9.0 secs

     total energy              =    -156.02217679 Ry
     estimated scf accuracy    <       0.08722912 Ry

     iteration #  2     ecut=   200.00 Ry     beta= 0.70
     Davidson diagonalization with overlap
     ethr =  3.49E-04,  avg # of iterations =  1.0

     total cpu time spent up to now is       11.7 secs

     total energy              =    -156.01334036 Ry
     estimated scf accuracy    <       0.04109293 Ry

     iteration #  3     ecut=   200.00 Ry     beta= 0.70
     Davidson diagonalization with overlap
     ethr =  1.64E-04,  avg # of iterations =  2.0

     total cpu time spent up to now is       14.5 secs

     total energy              =    -156.01867463 Ry
     estimated scf accuracy    <       0.00449444 Ry

     iteration #  4     ecut=   200.00 Ry     beta= 0.70
     Davidson diagonalization with overlap
     ethr =  1.80E-05,  avg # of iterations =  3.9

     total cpu time spent up to now is       17.8 secs

     total energy              =    -156.01871165 Ry
     estimated scf accuracy    <       0.00195890 Ry

     iteration #  5     ecut=   200.00 Ry     beta= 0.70
     Davidson diagonalization with overlap
     ethr =  7.84E-06,  avg # of iterations =  2.2

     total cpu time spent up to now is       20.7 secs

     total energy              =    -156.01879175 Ry
     estimated scf accuracy    <       0.00080221 Ry

     iteration #  6     ecut=   200.00 Ry     beta= 0.70
     Davidson diagonalization with overlap
     ethr =  3.21E-06,  avg # of iterations =  2.4

     total cpu time spent up to now is       23.4 secs

     total energy              =    -156.01895068 Ry
     estimated scf accuracy    <       0.00026524 Ry

     iteration #  7     ecut=   200.00 Ry     beta= 0.70
     Davidson diagonalization with overlap
     ethr =  1.06E-06,  avg # of iterations =  3.8

     total cpu time spent up to now is       26.8 secs

     total energy              =    -156.01904478 Ry
     estimated scf accuracy    <       0.00005158 Ry

     iteration #  8     ecut=   200.00 Ry     beta= 0.70
     Davidson diagonalization with overlap
     ethr =  2.06E-07,  avg # of iterations =  1.9

     negative rho (up, down):  2.607E-06 0.000E+00

     total cpu time spent up to now is       29.7 secs

     total energy              =    -156.01904751 Ry
     estimated scf accuracy    <       0.00001589 Ry

     iteration #  9     ecut=   200.00 Ry     beta= 0.70
     Davidson diagonalization with overlap
     ethr =  6.36E-08,  avg # of iterations =  2.9

     negative rho (up, down):  8.997E-07 0.000E+00

     total cpu time spent up to now is       33.0 secs

     total energy              =    -156.01905221 Ry
     estimated scf accuracy    <       0.00000042 Ry

     iteration # 10     ecut=   200.00 Ry     beta= 0.70
     Davidson diagonalization with overlap
     ethr =  1.68E-09,  avg # of iterations =  4.3

     negative rho (up, down):  1.454E-06 0.000E+00

     total cpu time spent up to now is       37.1 secs

     total energy              =    -156.01905246 Ry
     estimated scf accuracy    <       0.00000020 Ry

     iteration # 11     ecut=   200.00 Ry     beta= 0.70
     Davidson diagonalization with overlap
     ethr =  8.17E-10,  avg # of iterations =  2.0

     negative rho (up, down):  9.853E-07 0.000E+00

     total cpu time spent up to now is       40.0 secs

     total energy              =    -156.01905246 Ry
     estimated scf accuracy    <       0.00000002 Ry

     iteration # 12     ecut=   200.00 Ry     beta= 0.70
     Davidson diagonalization with overlap
     ethr =  9.24E-11,  avg # of iterations =  4.0

     negative rho (up, down):  1.417E-06 0.000E+00

     total cpu time spent up to now is       44.1 secs

     total energy              =    -156.01905248 Ry
     estimated scf accuracy    <          2.3E-09 Ry

     iteration # 13     ecut=   200.00 Ry     beta= 0.70
     Davidson diagonalization with overlap
     ethr =  9.20E-12,  avg # of iterations =  2.1

     negative rho (up, down):  1.287E-06 0.000E+00

     total cpu time spent up to now is       47.3 secs

     total energy              =    -156.01905248 Ry
     estimated scf accuracy    <          1.0E-10 Ry

     iteration # 14     ecut=   200.00 Ry     beta= 0.70
     Davidson diagonalization with overlap
     ethr =  4.19E-13,  avg # of iterations =  4.6

     negative rho (up, down):  1.273E-06 0.000E+00

     total cpu time spent up to now is       51.5 secs

     total energy              =    -156.01905248 Ry
     estimated scf accuracy    <          5.3E-11 Ry

     iteration # 15     ecut=   200.00 Ry     beta= 0.70
     Davidson diagonalization with overlap
     ethr =  2.13E-13,  avg # of iterations =  2.0

     negative rho (up, down):  1.278E-06 0.000E+00

     total cpu time spent up to now is       54.4 secs

     total energy              =    -156.01905248 Ry
     estimated scf accuracy    <          5.6E-12 Ry

     iteration # 16     ecut=   200.00 Ry     beta= 0.70
     Davidson diagonalization with overlap
     ethr =  1.00E-13,  avg # of iterations =  2.0

     negative rho (up, down):  1.276E-06 0.000E+00

     total cpu time spent up to now is       57.2 secs

     End of self-consistent calculation

          k = 0.0000 0.0000 0.0000 ( 46731 PWs)   bands (ev):

   -53.9195 -29.9923 -29.8931 -29.8931 -12.3878 -11.4274  -3.6632  -0.6899
    -0.6899  -0.2112   0.2751   0.2751   1.7357   4.0672   4.0672   4.2544
     4.2544

          k = 0.0000 0.0385 0.0000 ( 46689 PWs)   bands (ev):

   -53.9193 -29.9917 -29.8958 -29.8937 -12.3755 -11.4218  -3.6464  -0.7330
    -0.6774  -0.2716   0.2502   0.3086   1.7271   4.0333   4.0946   4.1978
     4.2374

          k = 0.0000 0.0770 0.0000 ( 46665 PWs)   bands (ev):

   -53.9186 -29.9901 -29.9036 -29.8955 -12.3388 -11.4051  -3.5969  -0.8569
    -0.6401  -0.4153   0.1785   0.3688   1.6988   3.9503   4.0590   4.1730
     4.1885

          k = 0.0000 0.1155 0.0000 ( 46663 PWs)   bands (ev):

   -53.9176 -29.9873 -29.9163 -29.8984 -12.2788 -11.3778  -3.5169  -1.0473
    -0.5998  -0.5797   0.0689   0.4065   1.6448   3.8606   3.8927   4.1139
     4.2922

          k = 0.0000 0.1540 0.0000 ( 46639 PWs)   bands (ev):

   -53.9162 -29.9837 -29.9333 -29.9022 -12.1970 -11.3405  -3.4105  -1.2853
    -0.8085  -0.4986  -0.0675   0.4005   1.5581   3.7412   3.8059   4.0223
     4.4391

          k = 0.0000 0.1925 0.0000 ( 46663 PWs)   bands (ev):

   -53.9145 -29.9793 -29.9537 -29.9068 -12.0958 -11.2945  -3.2845  -1.5513
    -1.0353  -0.4002  -0.2195   0.3489   1.4360   3.6307   3.8110   3.9233
     4.5999

          k = 0.0000 0.2309 0.0000 ( 46616 PWs)   bands (ev):

   -53.9126 -29.9766 -29.9744 -29.9121 -11.9782 -11.2411  -3.1503  -1.8250
    -1.2769  -0.3776  -0.2891   0.2638   1.2856   3.5720   3.8264   3.8794
     4.7627

          k = 0.0000 0.2694 0.0000 ( 46664 PWs)   bands (ev):

   -53.9106 -30.0010 -29.9690 -29.9177 -11.8481 -11.1821  -3.0298  -2.0813
    -1.5288  -0.5338  -0.1708   0.1631   1.1248   3.5630   3.7400   4.0001
     4.9180

          k = 0.0000 0.3079 0.0000 ( 46640 PWs)   bands (ev):

   -53.9085 -30.0259 -29.9636 -29.9234 -11.7099 -11.1198  -2.9689  -2.2746
    -1.7840  -0.6821  -0.0513   0.0625   0.9763   3.5939   3.6707   4.1557
     5.0591

          k = 0.0000 0.3464 0.0000 ( 46648 PWs)   bands (ev):

   -53.9065 -30.0500 -29.9583 -29.9289 -11.5692 -11.0566  -3.0318  -2.3444
    -2.0331  -0.8179  -0.0276   0.0630   0.8624   3.6228   3.6529   4.3275
     5.1817

          k = 0.0000 0.3849 0.0000 ( 46668 PWs)   bands (ev):

   -53.9046 -30.0725 -29.9533 -29.9341 -11.4320 -10.9955  -3.1956  -2.3168
    -2.2657  -0.9377  -0.1025   0.1664   0.7983   3.5975   3.7290   4.4984
     5.2838

          k = 0.0000 0.4234 0.0000 ( 46654 PWs)   bands (ev):

   -53.9029 -30.0924 -29.9489 -29.9387 -11.3054 -10.9396  -3.3825  -2.4718
    -2.2681  -1.0387  -0.1611   0.2542   0.7880   3.5927   3.8125   4.6537
     5.3652

          k = 0.0000 0.4619 0.0000 ( 46648 PWs)   bands (ev):

   -53.9015 -30.1087 -29.9452 -29.9425 -11.1965 -10.8919  -3.5511  -2.6422
    -2.2313  -1.1191  -0.2041   0.3234   0.8211   3.6026   3.8946   4.7818
     5.4265

          k = 0.0000 0.5004 0.0000 ( 46658 PWs)   bands (ev):

   -53.9005 -30.1209 -29.9454 -29.9425 -11.1124 -10.8553  -3.6822  -2.7695
    -2.2111  -1.1774  -0.2332   0.3728   0.8752   3.6191   3.9661   4.8754
     5.4690

          k = 0.0000 0.5389 0.0000 ( 46650 PWs)   bands (ev):

   -53.8998 -30.1284 -29.9471 -29.9408 -11.0592 -10.8324  -3.7650  -2.8482
    -2.2027  -1.2128  -0.2499   0.4021   0.9230   3.6335   4.0163   4.9316
     5.4939

          k = 0.0000-0.5774 0.0000 ( 46660 PWs)   bands (ev):

   -53.8996 -30.1309 -29.9477 -29.9402 -11.0409 -10.8245  -3.7933  -2.8748
    -2.2006  -1.2247  -0.2554   0.4118   0.9418   3.6391   4.0347   4.9503
     5.5021

          k = 0.0333 0.0577 0.0000 ( 46683 PWs)   bands (ev):

   -53.9188 -29.9906 -29.9010 -29.8949 -12.3510 -11.4106  -3.6133  -0.8163
    -0.6527  -0.3710   0.1975   0.3572   1.7086   3.9737   4.1015   4.1488
     4.2038

          k = 0.0333 0.0962 0.0000 ( 46647 PWs)   bands (ev):

   -53.9180 -29.9884 -29.9112 -29.8973 -12.3026 -11.3886  -3.5485  -0.9725
    -0.6046  -0.5279   0.0961   0.4104   1.6675   3.8846   3.9528   4.1406
     4.2508

          k = 0.0333 0.1347 0.0000 ( 46660 PWs)   bands (ev):

   -53.9168 -29.9852 -29.9259 -29.9008 -12.2317 -11.3563  -3.4551  -1.1852
    -0.7164  -0.5352  -0.0407   0.4331   1.5971   3.7977   3.8093   4.0565
     4.3875

          k = 0.0333 0.1732 0.0000 ( 46656 PWs)   bands (ev):

   -53.9153 -29.9812 -29.9445 -29.9051 -12.1402 -11.3147  -3.3383  -1.4353
    -0.9268  -0.4477  -0.1981   0.4118   1.4923   3.6688   3.7819   3.9618
     4.5447

          k = 0.0333 0.2117 0.0000 ( 46656 PWs)   bands (ev):

   -53.9135 -29.9766 -29.9660 -29.9102 -12.0307 -11.2649  -3.2070  -1.7033
    -1.1560  -0.3626  -0.3465   0.3490   1.3556   3.5835   3.8168   3.8675
     4.7090

          k = 0.0333 0.2502 0.0000 ( 46651 PWs)   bands (ev):

   -53.9115 -29.9895 -29.9714 -29.9157 -11.9068 -11.2087  -3.0766  -1.9676
    -1.4008  -0.5231  -0.2372   0.2581   1.2002   3.5445   3.7844   3.9106
     4.8693

          k = 0.0333 0.2887 0.0000 ( 46664 PWs)   bands (ev):

   -53.9094 -30.0140 -29.9660 -29.9215 -11.7726 -11.1479  -2.9788  -2.1954
    -1.6550  -0.6726  -0.1265   0.1554   1.0477   3.5418   3.7242   4.0489
     5.0172

          k = 0.0333 0.3272 0.0000 ( 46650 PWs)   bands (ev):

   -53.9074 -30.0384 -29.9606 -29.9273 -11.6329 -11.0850  -2.9758  -2.3269
    -1.9093  -0.8072  -0.0215   0.0547   0.9220   3.5551   3.7019   4.2140
     5.1467

          k = 0.0333 0.3657 0.0000 ( 46675 PWs)   bands (ev):

   -53.9054 -30.0616 -29.9555 -29.9329 -11.4937 -11.0227  -3.0997  -2.3340
    -2.1530  -0.9251  -0.0354   0.0714   0.8426   3.5650   3.7279   4.3888
     5.2541

          k = 0.0333 0.4041 0.0000 ( 46672 PWs)   bands (ev):

   -53.9036 -30.0826 -29.9508 -29.9379 -11.3616 -10.9640  -3.2812  -2.3749
    -2.2875  -1.0253  -0.1103   0.1490   0.8183   3.5753   3.7874   4.5577
     5.3373

          k = 0.0333 0.4426 0.0000 ( 46667 PWs)   bands (ev):

   -53.9021 -30.1006 -29.9467 -29.9422 -11.2434 -10.9120  -3.4602  -2.5653
    -2.2429  -1.1069  -0.1688   0.2119   0.8422   3.5927   3.8603   4.7082
     5.3963

          k = 0.0333 0.4811 0.0000 ( 46684 PWs)   bands (ev):

   -53.9009 -30.1147 -29.9456 -29.9436 -11.1466 -10.8696  -3.6100  -2.7157
    -2.2149  -1.1690  -0.2112   0.2611   0.8950   3.6135   3.9338   4.8302
     5.4330

          k = 0.0333 0.5196 0.0000 ( 46680 PWs)   bands (ev):

   -53.9000 -30.1245 -29.9480 -29.9413 -11.0776 -10.8397  -3.7167  -2.8198
    -2.2017  -1.2109  -0.2386   0.2954   0.9514   3.6314   3.9959   4.9164
     5.4519

          k = 0.0333 0.5581 0.0000 ( 46660 PWs)   bands (ev):

   -53.8996 -30.1295 -29.9492 -29.9402 -11.0417 -10.8242  -3.7720  -2.8729
    -2.1972  -1.2321  -0.2519   0.3131   0.9872   3.6414   4.0326   4.9612
     5.4590

          k = 0.0667 0.1155 0.0000 ( 46647 PWs)   bands (ev):

   -53.9170 -29.9858 -29.9234 -29.9004 -12.2434 -11.3616  -3.4701  -1.1496
    -0.6795  -0.5490  -0.0473   0.4553   1.6099   3.8061   3.8202   4.0661
     4.3747

          k = 0.0667 0.1540 0.0000 ( 46652 PWs)   bands (ev):

   -53.9156 -29.9822 -29.9395 -29.9045 -12.1627 -11.3249  -3.3659  -1.3714
    -0.8559  -0.4762  -0.2264   0.4724   1.5210   3.6925   3.7531   3.9780
     4.5277

          k = 0.0667 0.1925 0.0000 ( 46636 PWs)   bands (ev):

   -53.9140 -29.9779 -29.9589 -29.9096 -12.0629 -11.2795  -3.2424  -1.6197
    -1.0553  -0.4165  -0.3911   0.4489   1.4009   3.5905   3.7512   3.8909
     4.6936

          k = 0.0667 0.2309 0.0000 ( 46647 PWs)   bands (ev):

   -53.9121 -29.9807 -29.9731 -29.9153 -11.9470 -11.2268  -3.1110  -1.8753
    -1.2791  -0.5963  -0.3000   0.3866   1.2587   3.5226   3.8086   3.8184
     4.8589

          k = 0.0667 0.2694 0.0000 ( 46641 PWs)   bands (ev):

   -53.9101 -30.0040 -29.9679 -29.9214 -11.8188 -11.1686  -2.9939  -2.1129
    -1.5246  -0.7531  -0.2109   0.2963   1.1132   3.4867   3.7715   3.9187
     5.0130

          k = 0.0667 0.3079 0.0000 ( 46664 PWs)   bands (ev):

   -53.9081 -30.0277 -29.9625 -29.9276 -11.6827 -11.1071  -2.9386  -2.2861
    -1.7814  -0.8837  -0.1324   0.1922   0.9885   3.4772   3.7552   4.0671
     5.1478

          k = 0.0667 0.3464 0.0000 ( 46661 PWs)   bands (ev):

   -53.9061 -30.0507 -29.9573 -29.9337 -11.5443 -11.0448  -3.0066  -2.3370
    -2.0356  -0.9904  -0.0710   0.0866   0.9067   3.4900   3.7667   4.2375
     5.2574

          k = 0.0667 0.3849 0.0000 ( 46663 PWs)   bands (ev):

   -53.9043 -30.0721 -29.9524 -29.9394 -11.4095 -10.9845  -3.1670  -2.3005
    -2.2737  -1.0764  -0.0265  -0.0113   0.8786   3.5221   3.7988   4.4150
     5.3374

          k = 0.0667 0.4234 0.0000 ( 46656 PWs)   bands (ev):

   -53.9026 -30.0910 -29.9481 -29.9444 -11.2851 -10.9292  -3.3460  -2.4844
    -2.2495  -1.1443  -0.0956   0.0080   0.8991   3.5654   3.8458   4.5871
     5.3854

          k = 0.0667 0.4619 0.0000 ( 46672 PWs)   bands (ev):

   -53.9012 -30.1066 -29.9485 -29.9445 -11.1783 -10.8822  -3.5065  -2.6581
    -2.2131  -1.1959  -0.1629   0.0385   0.9519   3.6060   3.9060   4.7440
     5.4018

          k = 0.0667 0.5004 0.0000 ( 46677 PWs)   bands (ev):

   -53.9002 -30.1182 -29.9516 -29.9419 -11.0959 -10.8461  -3.6311  -2.7875
    -2.1944  -1.2323  -0.2115   0.0649   1.0154   3.6321   3.9732   4.8766
     5.3914

          k = 0.0667 0.5389 0.0000 ( 46672 PWs)   bands (ev):

   -53.8996 -30.1253 -29.9535 -29.9402 -11.0438 -10.8235  -3.7098  -2.8673
    -2.1873  -1.2540  -0.2408   0.0831   1.0665   3.6432   4.0295   4.9726
     5.3671

          k = 0.0667 0.5774 0.0000 ( 46668 PWs)   bands (ev):

   -53.8994 -30.1277 -29.9542 -29.9397 -11.0259 -10.8157  -3.7366  -2.8943
    -2.1857  -1.2612  -0.2505   0.0895   1.0861   3.6457   4.0518   5.0101
     5.3531

          k = 0.1000 0.1732 0.0000 ( 46649 PWs)   bands (ev):

   -53.9142 -29.9784 -29.9564 -29.9095 -12.0737 -11.2844  -3.2544  -1.5896
    -1.0122  -0.4489  -0.4081   0.4904   1.4166   3.5933   3.7234   3.8977
     4.6920

          k = 0.1000 0.2117 0.0000 ( 46632 PWs)   bands (ev):

   -53.9125 -29.9759 -29.9739 -29.9154 -11.9674 -11.2359  -3.1291  -1.8229
    -1.1923  -0.6701  -0.3380   0.4710   1.2903   3.5099   3.7413   3.8343
     4.8616

          k = 0.1000 0.2502 0.0000 ( 46645 PWs)   bands (ev):

   -53.9106 -29.9971 -29.9690 -29.9220 -11.8471 -11.1812  -3.0059  -2.0508
    -1.4081  -0.8570  -0.2753   0.4132   1.1579   3.4490   3.7986   3.8126
     5.0224

          k = 0.1000 0.2887 0.0000 ( 46644 PWs)   bands (ev):

   -53.9086 -30.0192 -29.9638 -29.9288 -11.7169 -11.1221  -2.9188  -2.2387
    -1.6565  -0.9969  -0.2302   0.3254   1.0413   3.4174   3.7901   3.9308
     5.1640

          k = 0.1000 0.3272 0.0000 ( 46655 PWs)   bands (ev):

   -53.9066 -30.0411 -29.9587 -29.9357 -11.5817 -11.0609  -2.9304  -2.3270
    -1.9177  -1.0974  -0.2088   0.2200   0.9622   3.4202   3.8014   4.0828
     5.2786

          k = 0.1000 0.3657 0.0000 ( 46666 PWs)   bands (ev):

   -53.9048 -30.0620 -29.9537 -29.9423 -11.4472 -11.0003  -3.0547  -2.3069
    -2.1710  -1.1692  -0.2080   0.1091   0.9322   3.4576   3.8234   4.2540
     5.3606

          k = 0.1000 0.4041 0.0000 ( 46648 PWs)   bands (ev):

   -53.9030 -30.0810 -29.9492 -29.9483 -11.3197 -10.9432  -3.2214  -2.4013
    -2.2516  -1.2199  -0.2150   0.0026   0.9486   3.5206   3.8513   4.4319
     5.4062

          k = 0.1000 0.4426 0.0000 ( 46641 PWs)   bands (ev):

   -53.9016 -30.0971 -29.9534 -29.9454 -11.2060 -10.8926  -3.3823  -2.5978
    -2.2062  -1.2542  -0.2180  -0.0916   0.9993   3.5870   3.8912   4.6062
     5.4137

          k = 0.1000 0.4811 0.0000 ( 46677 PWs)   bands (ev):

   -53.9004 -30.1099 -29.9575 -29.9423 -11.1130 -10.8514  -3.5161  -2.7522
    -2.1809  -1.2761  -0.2137  -0.1676   1.0673   3.6271   3.9551   4.7692
     5.3853

          k = 0.1000 0.5196 0.0000 ( 46665 PWs)   bands (ev):

   -53.8996 -30.1187 -29.9603 -29.9402 -11.0469 -10.8223  -3.6112  -2.8585
    -2.1710  -1.2886  -0.2209  -0.2062   1.1319   3.6353   4.0315   4.9131
     5.3287

          k = 0.1000 0.5581 0.0000 ( 46668 PWs)   bands (ev):

   -53.8992 -30.1232 -29.9618 -29.9391 -11.0125 -10.8073  -3.6606  -2.9127
    -2.1686  -1.2942  -0.2483  -0.2008   1.1716   3.6313   4.0838   5.0182
     5.2661

          k = 0.1333 0.2309 0.0000 ( 46637 PWs)   bands (ev):

   -53.9107 -29.9946 -29.9694 -29.9223 -11.8566 -11.1855  -3.0104  -2.0276
    -1.3533  -0.9101  -0.2994   0.4577   1.1736   3.4356   3.7719   3.8071
     5.0276

          k = 0.1333 0.2694 0.0000 ( 46648 PWs)   bands (ev):

   -53.9089 -30.0144 -29.9645 -29.9299 -11.7343 -11.1297  -2.9108  -2.2071
    -1.5632  -1.0901  -0.2871   0.4055   1.0698   3.3849   3.8068   3.8491
     5.1767

          k = 0.1333 0.3079 0.0000 ( 46652 PWs)   bands (ev):

   -53.9070 -30.0344 -29.9595 -29.9378 -11.6047 -11.0708  -2.8818  -2.3119
    -1.8155  -1.2024  -0.3077   0.3208   0.9981   3.3727   3.8227   3.9679
     5.2991

          k = 0.1333 0.3464 0.0000 ( 46637 PWs)   bands (ev):

   -53.9051 -30.0538 -29.9547 -29.9456 -11.4732 -11.0111  -2.9629  -2.3079
    -2.0768  -1.2697  -0.3559   0.2149   0.9692   3.4049   3.8438   4.1165
     5.3886

          k = 0.1333 0.3849 0.0000 ( 46638 PWs)   bands (ev):

   -53.9034 -30.0718 -29.9529 -29.9501 -11.3456 -10.9534  -3.1046  -2.3227
    -2.2502  -1.3085  -0.4146   0.0999   0.9826   3.4749   3.8637   4.2820
     5.4410

          k = 0.1333 0.4234 0.0000 ( 46646 PWs)   bands (ev):

   -53.9018 -30.0876 -29.9595 -29.9461 -11.2282 -10.9005  -3.2533  -2.5390
    -2.1951  -1.3277  -0.4655  -0.0128   1.0303   3.5591   3.8889   4.4525
     5.4551

          k = 0.1333 0.4619 0.0000 ( 46661 PWs)   bands (ev):

   -53.9006 -30.1007 -29.9649 -29.9427 -11.1277 -10.8555  -3.3843  -2.7161
    -2.1617  -1.3335  -0.4988  -0.1135   1.1006   3.6129   3.9462   4.6180
     5.4331

          k = 0.1333 0.5004 0.0000 ( 46681 PWs)   bands (ev):

   -53.8996 -30.1104 -29.9689 -29.9402 -11.0504 -10.8210  -3.4855  -2.8474
    -2.1486  -1.3315  -0.5156  -0.1935   1.1764   3.6143   4.0412   4.7691
     5.3820

          k = 0.1333 0.5389 0.0000 ( 46687 PWs)   bands (ev):

   -53.8990 -30.1164 -29.9714 -29.9387 -11.0016 -10.7993  -3.5492  -2.9281
    -2.1465  -1.3273  -0.5220  -0.2452   1.2361   3.5936   4.1288   4.8905
     5.3189

          k = 0.1333 0.5774 0.0000 ( 46688 PWs)   bands (ev):

   -53.8988 -30.1184 -29.9723 -29.9382 -10.9849 -10.7919  -3.5709  -2.9553
    -2.1469  -1.3254  -0.5234  -0.2631   1.2589   3.5828   4.1639   4.9436
     5.2848

          k = 0.1667 0.2887 0.0000 ( 46637 PWs)   bands (ev):

   -53.9071 -30.0319 -29.9598 -29.9387 -11.6125 -11.0741  -2.8655  -2.3046
    -1.7699  -1.2504  -0.3437   0.3582   1.0104   3.3560   3.8298   3.9254
     5.3072

          k = 0.1667 0.3272 0.0000 ( 46630 PWs)   bands (ev):

   -53.9053 -30.0491 -29.9551 -29.9478 -11.4865 -11.0166  -2.9107  -2.3067
    -2.0146  -1.3386  -0.4395   0.2764   0.9879   3.3760   3.8546   4.0376
     5.4062

          k = 0.1667 0.3657 0.0000 ( 46622 PWs)   bands (ev):

   -53.9036 -30.0651 -29.9568 -29.9506 -11.3616 -10.9596  -3.0192  -2.2621
    -2.2473  -1.3812  -0.5551   0.1709   1.0018   3.4426   3.8735   4.1752
     5.4702

          k = 0.1667 0.4041 0.0000 ( 46631 PWs)   bands (ev):

   -53.9020 -30.0795 -29.9651 -29.9465 -11.2437 -10.9059  -3.1424  -2.4895
    -2.1820  -1.3952  -0.6663   0.0543   1.0478   3.5329   3.8923   4.3253
     5.4987

          k = 0.1667 0.4426 0.0000 ( 46665 PWs)   bands (ev):

   -53.9007 -30.0918 -29.9724 -29.9430 -11.1391 -10.8584  -3.2559  -2.6835
    -2.1380  -1.3905  -0.7548  -0.0610   1.1191   3.5939   3.9450   4.4758
     5.4948

          k = 0.1667 0.4811 0.0000 ( 46666 PWs)   bands (ev):

   -53.8996 -30.1013 -29.9782 -29.9402 -11.0538 -10.8198  -3.3483  -2.8358
    -2.1199  -1.3752  -0.8134  -0.1631   1.2038   3.5861   4.0550   4.6145
     5.4654

          k = 0.1667 0.5196 0.0000 ( 46646 PWs)   bands (ev):

   -53.8989 -30.1079 -29.9822 -29.9383 -10.9934 -10.7925  -3.4133  -2.9404
    -2.1191  -1.3576  -0.8458  -0.2404   1.2824   3.5427   4.1766   4.7276
     5.4238

          k = 0.1667 0.5581 0.0000 ( 46677 PWs)   bands (ev):

   -53.8985 -30.1113 -29.9843 -29.9373 -10.9621 -10.7783  -3.4467  -2.9937
    -2.1229  -1.3460  -0.8594  -0.2824   1.3308   3.5083   4.2541   4.7949
     5.3916

          k = 0.2000 0.3464 0.0000 ( 46617 PWs)   bands (ev):

   -53.9036 -30.0627 -29.9583 -29.9508 -11.3670 -10.9617  -2.9874  -2.2458
    -2.2385  -1.4098  -0.6062   0.1969   1.0079   3.4310   3.8772   4.1366
     5.4812

          k = 0.2000 0.3849 0.0000 ( 46633 PWs)   bands (ev):

   -53.9021 -30.0748 -29.9687 -29.9468 -11.2517 -10.9087  -3.0768  -2.4603
    -2.1723  -1.4359  -0.7816   0.0928   1.0554   3.5175   3.8953   4.2543
     5.5251

          k = 0.2000 0.4234 0.0000 ( 46654 PWs)   bands (ev):

   -53.9007 -30.0850 -29.9783 -29.9432 -11.1462 -10.8601  -3.1588  -2.6602
    -2.1147  -1.4325  -0.9403  -0.0230   1.1280   3.5784   3.9466   4.3779
     5.5420

          k = 0.2000 0.4619 0.0000 ( 46662 PWs)   bands (ev):

   -53.8996 -30.0932 -29.9865 -29.9402 -11.0564 -10.8188  -3.2250  -2.8259
    -2.0863  -1.4111  -1.0631  -0.1369   1.2191   3.5603   4.0676   4.4942
     5.5381

          k = 0.2000 0.5004 0.0000 ( 46692 PWs)   bands (ev):

   -53.8988 -30.0991 -29.9929 -29.9380 -10.9877 -10.7871  -3.2723  -2.9495
    -2.0851  -1.3823  -1.1425  -0.2346   1.3141   3.4932   4.2167   4.5910
     5.5222

          k = 0.2000 0.5389 0.0000 ( 46664 PWs)   bands (ev):

   -53.8982 -30.1027 -29.9969 -29.9367 -10.9445 -10.7673  -3.3003  -3.0256
    -2.0960  -1.3577  -1.1837  -0.3018   1.3890   3.4277   4.3357   4.6562
     5.5053

          k = 0.2000 0.5774 0.0000 ( 46676 PWs)   bands (ev):

   -53.8981 -30.1039 -29.9982 -29.9362 -10.9298 -10.7605  -3.3095  -3.0513
    -2.1020  -1.3480  -1.1960  -0.3260   1.4179   3.4008   4.3813   4.6795
     5.4980

          k = 0.2333 0.4041 0.0000 ( 46649 PWs)   bands (ev):

   -53.9008 -30.0824 -29.9806 -29.9433 -11.1486 -10.8607  -3.1220  -2.6517
    -2.1040  -1.4479  -1.0099  -0.0091   1.1305   3.5725   3.9476   4.3432
     5.5594

          k = 0.2333 0.4426 0.0000 ( 46677 PWs)   bands (ev):

   -53.8996 -30.0881 -29.9917 -29.9402 -11.0579 -10.8182  -3.1492  -2.8203
    -2.0583  -1.4312  -1.2144  -0.1216   1.2259   3.5453   4.0748   4.4294
     5.5793

          k = 0.2333 0.4811 0.0000 ( 46666 PWs)   bands (ev):

   -53.8987 -30.0919 -30.0012 -29.9379 -10.9844 -10.7838  -3.1589  -2.9550
    -2.0460  -1.3986  -1.3706  -0.2297   1.3329   3.4580   4.2428   4.5022
     5.5902

          k = 0.2333 0.5196 0.0000 ( 46676 PWs)   bands (ev):

   -53.8981 -30.0941 -30.0082 -29.9362 -10.9327 -10.7594  -3.1566  -3.0485
    -2.0634  -1.4650  -1.3634  -0.3172   1.4316   3.3603   4.3957   4.5541
     5.5957

          k = 0.2333 0.5581 0.0000 ( 46649 PWs)   bands (ev):

   -53.8977 -30.0951 -30.0119 -29.9354 -10.9059 -10.7468  -3.1516  -3.0964
    -2.0854  -1.5052  -1.3402  -0.3671   1.4932   3.2962   4.4877   4.5809
     5.5979

          k = 0.2667 0.4619 0.0000 ( 46649 PWs)   bands (ev):

   -53.8987 -30.0890 -30.0044 -29.9378 -10.9833 -10.7826  -3.1140  -2.9568
    -2.0238  -1.4632  -1.4043  -0.2278   1.3391   3.4453   4.2517   4.4715
     5.6143

          k = 0.2667 0.5004 0.0000 ( 46695 PWs)   bands (ev):

   -53.8980 -30.0883 -30.0154 -29.9360 -10.9267 -10.7554  -3.0606  -3.0602
    -2.0273  -1.6513  -1.3654  -0.3256   1.4547   3.3221   4.4272   4.5004
     5.6454

          k = 0.2667 0.5389 0.0000 ( 46673 PWs)   bands (ev):

   -53.8975 -30.0869 -30.0231 -29.9348 -10.8913 -10.7383  -3.1252  -3.0063
    -2.0741  -1.7454  -1.3308  -0.3966   1.5467   3.2193   4.5165   4.5576
     5.6672

          k = 0.2667 0.5774 0.0000 ( 46665 PWs)   bands (ev):

   -53.8974 -30.0862 -30.0259 -29.9345 -10.8792 -10.7325  -3.1471  -2.9822
    -2.1054  -1.7678  -1.3168  -0.4230   1.5829   3.1786   4.5216   4.6063
     5.6751

          k = 0.3000 0.5196 0.0000 ( 46681 PWs)   bands (ev):

   -53.8975 -30.0832 -30.0278 -29.9347 -10.8864 -10.7354  -3.1351  -2.9410
    -2.0694  -1.8437  -1.3268  -0.4073   1.5664   3.1908   4.4942   4.5819
     5.6919

          k = 0.3000 0.5581 0.0000 ( 46689 PWs)   bands (ev):

   -53.8972 -30.0788 -30.0359 -29.9340 -10.8656 -10.7250  -3.1735  -2.8405
    -2.1779  -1.8953  -1.3004  -0.4558   1.6372   3.1074   4.4894   4.6713
     5.7184

          k = 0.3333 0.5774 0.0000 ( 46695 PWs)   bands (ev):

   -53.8971 -30.0745 -30.0419 -29.9337 -10.8569 -10.7205  -3.1900  -2.7439
    -2.2778  -1.9218  -1.2878  -0.4781   1.6727   3.0637   4.4796   4.7124
     5.7369

     the Fermi energy is     1.1178 ev

!    total energy              =    -156.01905248 Ry
     estimated scf accuracy    <          6.8E-14 Ry
     smearing contrib. (-TS)   =      -0.00000202 Ry
     internal energy E=F+TS    =    -156.01905046 Ry

     The total energy is F=E-TS. E is the sum of the following terms:
     one-electron contribution =    -450.59081511 Ry
     hartree contribution      =     227.17583821 Ry
     xc contribution           =     -26.77669409 Ry
     ewald contribution        =      94.17262054 Ry

     convergence has been achieved in  16 iterations

     negative rho (up, down):  1.276E-06 0.000E+00

     Forces acting on atoms (cartesian axes, Ry/au):

     atom    1 type  1   force =     0.00000000    0.00000000    0.00000000
     atom    2 type  2   force =     0.00000000    0.00000000   -0.00052772
     atom    3 type  2   force =     0.00000000    0.00000000    0.00052772

     Total force =     0.000746     Total SCF correction =     0.000001


     Computing stress (Cartesian axis) and pressure


     negative rho (up, down):  1.276E-06 0.000E+00
          total   stress  (Ry/bohr**3)                   (kbar)     P=        0.27
   0.00000105   0.00000000   0.00000000            0.15        0.00        0.00
   0.00000000   0.00000105  -0.00000000            0.00        0.15       -0.00
   0.00000000   0.00000000   0.00000349            0.00        0.00        0.51


     Writing all to output data dir ./outdir/0.0001.save/
 
     init_run     :      2.67s CPU      2.76s WALL (       1 calls)
     electrons    :     53.16s CPU     54.21s WALL (       1 calls)
     forces       :      0.21s CPU      0.23s WALL (       1 calls)
     stress       :      0.59s CPU      0.61s WALL (       1 calls)

     Called by init_run:
     wfcinit      :      2.44s CPU      2.47s WALL (       1 calls)
     potinit      :      0.03s CPU      0.03s WALL (       1 calls)
     hinit0       :      0.10s CPU      0.14s WALL (       1 calls)

     Called by electrons:
     c_bands      :     42.74s CPU     43.54s WALL (      17 calls)
     sum_band     :      7.21s CPU      7.36s WALL (      17 calls)
     v_of_rho     :      0.13s CPU      0.13s WALL (      17 calls)
     newd         :      0.29s CPU      0.30s WALL (      17 calls)
     mix_rho      :      2.79s CPU      2.81s WALL (      17 calls)

     Called by c_bands:
     init_us_2    :      0.57s CPU      0.60s WALL (    3367 calls)
     init_us_2:cp :      0.57s CPU      0.60s WALL (    3367 calls)
     cegterg      :     40.27s CPU     41.01s WALL (    1547 calls)

     Called by *egterg:
     cdiaghg      :      1.78s CPU      1.85s WALL (    5659 calls)
     h_psi        :     35.40s CPU     35.94s WALL (    5841 calls)
     s_psi        :      0.82s CPU      0.86s WALL (    5841 calls)
     g_psi        :      0.09s CPU      0.09s WALL (    4203 calls)

     Called by h_psi:
     h_psi:calbec :      1.65s CPU      1.73s WALL (    5841 calls)
     vloc_psi     :     32.73s CPU     33.15s WALL (    5841 calls)
     add_vuspsi   :      0.88s CPU      0.92s WALL (    5841 calls)

     General routines
     calbec       :      2.26s CPU      2.38s WALL (    7843 calls)
     fft          :      0.13s CPU      0.14s WALL (     213 calls)
     ffts         :      1.98s CPU      1.99s WALL (    4376 calls)
     fftw         :     36.89s CPU     37.37s WALL (  167771 calls)
 
     Parallel routines
 
     PWSCF        :     58.17s CPU   1m 4.20s WALL

 
   This run was terminated on:   9: 8:21  18Jun2022            

=------------------------------------------------------------------------------=
   JOB DONE.
=------------------------------------------------------------------------------=
