
     Program PWSCF v.7.0 starts on 18Jun2022 at  8:46: 3 

     This program is part of the open-source Quantum ESPRESSO suite
     for quantum simulation of materials; please cite
         "P. Giannozzi et al., J. Phys.:Condens. Matter 21 395502 (2009);
         "P. Giannozzi et al., J. Phys.:Condens. Matter 29 465901 (2017);
         "P. Giannozzi et al., J. Chem. Phys. 152 154105 (2020);
          URL http://www.quantum-espresso.org", 
     in publications or presentations arising from this work. More details at
     http://www.quantum-espresso.org/quote

     Parallel version (MPI), running on    64 processors

     MPI processes distributed on     1 nodes
     467253 MiB available memory on the printing compute node when the environment starts
 
     Reading input from ./inputs/0.01-scf.in
Warning: card &CELL ignored
Warning: card / ignored

     Current dimensions of program PWSCF are:
     Max number of different atomic species (ntypx) = 10
     Max number of k-points (npk) =  40000
     Max angular momentum in pseudopotentials (lmaxx) =  4
     file Nb.pbe-spn-rrkjus_psl.1.0.0.UPF: wavefunction(s)  4S 4P renormalized
     file Se.pbe-mt_fhi.UPF: wavefunction(s)  4f renormalized
     Message from routine setup:
     using ibrav=0 with symmetry is DISCOURAGED, use correct ibrav instead
 
     R & G space division:  proc/nbgrp/npool/nimage =      64
     Subspace diagonalization in iterative solution of the eigenvalue problem:
     a serial algorithm will be used

 
     Parallelization info
     --------------------
     sticks:   dense  smooth     PW     G-vecs:    dense   smooth      PW
     Min          37      37     10                 5837     5837     828
     Max          39      39     11                 5850     5850     847
     Sum        2395    2395    649               373933   373933   53367
 
     Using Slab Decomposition
 


     bravais-lattice index     =            0
     lattice parameter (alat)  =       6.5791  a.u.
     unit-cell volume          =     978.4383 (a.u.)^3
     number of atoms/cell      =            3
     number of atomic types    =            2
     number of electrons       =        25.00
     number of Kohn-Sham states=           17
     kinetic-energy cutoff     =     200.0000  Ry
     charge density cutoff     =     800.0000  Ry
     scf convergence threshold =      1.0E-12
     mixing beta               =       0.7000
     number of iterations used =            8  local-TF  mixing
     Exchange-correlation= PBE
                           (   1   4   3   4   0   0   0)

     celldm(1)=   6.579104  celldm(2)=   0.000000  celldm(3)=   0.000000
     celldm(4)=   0.000000  celldm(5)=   0.000000  celldm(6)=   0.000000

     crystal axes: (cart. coord. in units of alat)
               a(1) = (   1.000000   0.000000   0.000000 )  
               a(2) = (  -0.500000   0.866025   0.000000 )  
               a(3) = (   0.000000   0.000000   3.967369 )  

     reciprocal axes: (cart. coord. in units 2 pi/alat)
               b(1) = (  1.000000  0.577350  0.000000 )  
               b(2) = (  0.000000  1.154701  0.000000 )  
               b(3) = (  0.000000  0.000000  0.252056 )  


     PseudoPot. # 1 for Nb read from file:
     ./PP/Nb.pbe-spn-rrkjus_psl.1.0.0.UPF
     MD5 check sum: 6ee677a9f002bd3e3657f443f129faad
     Pseudo is Ultrasoft + core correction, Zval = 13.0
     Generated using &quot;atomic&quot; code by A. Dal Corso  v.6.2.2
     Using radial grid of 1227 points,  6 beta functions with: 
                l(1) =   0
                l(2) =   0
                l(3) =   1
                l(4) =   1
                l(5) =   2
                l(6) =   2
     Q(r) pseudized with 0 coefficients 


     PseudoPot. # 2 for Se read from file:
     ./PP/Se.pbe-mt_fhi.UPF
     MD5 check sum: 761aa2365a2a775fd78ad90d13f3567a
     Pseudo is Norm-conserving, Zval =  6.0
     Generated using FHI98PP, converted with fhi2upf.x v.5.0.2
     Using radial grid of  533 points,  3 beta functions with: 
                l(1) =   0
                l(2) =   1
                l(3) =   3

     atomic species   valence    mass     pseudopotential
        Nb            13.00    92.90000     Nb( 1.00)
        Se             6.00    78.96000     Se( 1.00)

     12 Sym. Ops. (no inversion) found



   Cartesian axes

     site n.     atom                  positions (alat units)
         1           Nb  tau(   1) = (   0.0000000   0.0000000   1.9836843  )
         2           Se  tau(   2) = (  -0.0000000   0.5773503   1.5010037  )
         3           Se  tau(   3) = (  -0.0000000   0.5773503   2.4663648  )

     number of k points=    91  Fermi-Dirac smearing, width (Ry)=  0.0100
                       cart. coord. in units 2pi/alat
        k(    1) = (   0.0000000   0.0000000   0.0000000), wk =   0.0022222
        k(    2) = (   0.0000000   0.0384900   0.0000000), wk =   0.0133333
        k(    3) = (   0.0000000   0.0769800   0.0000000), wk =   0.0133333
        k(    4) = (   0.0000000   0.1154701   0.0000000), wk =   0.0133333
        k(    5) = (   0.0000000   0.1539601   0.0000000), wk =   0.0133333
        k(    6) = (   0.0000000   0.1924501   0.0000000), wk =   0.0133333
        k(    7) = (   0.0000000   0.2309401   0.0000000), wk =   0.0133333
        k(    8) = (   0.0000000   0.2694301   0.0000000), wk =   0.0133333
        k(    9) = (   0.0000000   0.3079201   0.0000000), wk =   0.0133333
        k(   10) = (   0.0000000   0.3464102   0.0000000), wk =   0.0133333
        k(   11) = (   0.0000000   0.3849002   0.0000000), wk =   0.0133333
        k(   12) = (   0.0000000   0.4233902   0.0000000), wk =   0.0133333
        k(   13) = (   0.0000000   0.4618802   0.0000000), wk =   0.0133333
        k(   14) = (   0.0000000   0.5003702   0.0000000), wk =   0.0133333
        k(   15) = (   0.0000000   0.5388603   0.0000000), wk =   0.0133333
        k(   16) = (   0.0000000  -0.5773503   0.0000000), wk =   0.0066667
        k(   17) = (   0.0333333   0.0577350   0.0000000), wk =   0.0133333
        k(   18) = (   0.0333333   0.0962250   0.0000000), wk =   0.0266667
        k(   19) = (   0.0333333   0.1347151   0.0000000), wk =   0.0266667
        k(   20) = (   0.0333333   0.1732051   0.0000000), wk =   0.0266667
        k(   21) = (   0.0333333   0.2116951   0.0000000), wk =   0.0266667
        k(   22) = (   0.0333333   0.2501851   0.0000000), wk =   0.0266667
        k(   23) = (   0.0333333   0.2886751   0.0000000), wk =   0.0266667
        k(   24) = (   0.0333333   0.3271652   0.0000000), wk =   0.0266667
        k(   25) = (   0.0333333   0.3656552   0.0000000), wk =   0.0266667
        k(   26) = (   0.0333333   0.4041452   0.0000000), wk =   0.0266667
        k(   27) = (   0.0333333   0.4426352   0.0000000), wk =   0.0266667
        k(   28) = (   0.0333333   0.4811252   0.0000000), wk =   0.0266667
        k(   29) = (   0.0333333   0.5196152   0.0000000), wk =   0.0266667
        k(   30) = (   0.0333333   0.5581053   0.0000000), wk =   0.0266667
        k(   31) = (   0.0666667   0.1154701   0.0000000), wk =   0.0133333
        k(   32) = (   0.0666667   0.1539601   0.0000000), wk =   0.0266667
        k(   33) = (   0.0666667   0.1924501   0.0000000), wk =   0.0266667
        k(   34) = (   0.0666667   0.2309401   0.0000000), wk =   0.0266667
        k(   35) = (   0.0666667   0.2694301   0.0000000), wk =   0.0266667
        k(   36) = (   0.0666667   0.3079201   0.0000000), wk =   0.0266667
        k(   37) = (   0.0666667   0.3464102   0.0000000), wk =   0.0266667
        k(   38) = (   0.0666667   0.3849002   0.0000000), wk =   0.0266667
        k(   39) = (   0.0666667   0.4233902   0.0000000), wk =   0.0266667
        k(   40) = (   0.0666667   0.4618802   0.0000000), wk =   0.0266667
        k(   41) = (   0.0666667   0.5003702   0.0000000), wk =   0.0266667
        k(   42) = (   0.0666667   0.5388603   0.0000000), wk =   0.0266667
        k(   43) = (   0.0666667   0.5773503   0.0000000), wk =   0.0133333
        k(   44) = (   0.1000000   0.1732051   0.0000000), wk =   0.0133333
        k(   45) = (   0.1000000   0.2116951   0.0000000), wk =   0.0266667
        k(   46) = (   0.1000000   0.2501851   0.0000000), wk =   0.0266667
        k(   47) = (   0.1000000   0.2886751   0.0000000), wk =   0.0266667
        k(   48) = (   0.1000000   0.3271652   0.0000000), wk =   0.0266667
        k(   49) = (   0.1000000   0.3656552   0.0000000), wk =   0.0266667
        k(   50) = (   0.1000000   0.4041452   0.0000000), wk =   0.0266667
        k(   51) = (   0.1000000   0.4426352   0.0000000), wk =   0.0266667
        k(   52) = (   0.1000000   0.4811252   0.0000000), wk =   0.0266667
        k(   53) = (   0.1000000   0.5196152   0.0000000), wk =   0.0266667
        k(   54) = (   0.1000000   0.5581053   0.0000000), wk =   0.0266667
        k(   55) = (   0.1333333   0.2309401   0.0000000), wk =   0.0133333
        k(   56) = (   0.1333333   0.2694301   0.0000000), wk =   0.0266667
        k(   57) = (   0.1333333   0.3079201   0.0000000), wk =   0.0266667
        k(   58) = (   0.1333333   0.3464102   0.0000000), wk =   0.0266667
        k(   59) = (   0.1333333   0.3849002   0.0000000), wk =   0.0266667
        k(   60) = (   0.1333333   0.4233902   0.0000000), wk =   0.0266667
        k(   61) = (   0.1333333   0.4618802   0.0000000), wk =   0.0266667
        k(   62) = (   0.1333333   0.5003702   0.0000000), wk =   0.0266667
        k(   63) = (   0.1333333   0.5388603   0.0000000), wk =   0.0266667
        k(   64) = (   0.1333333   0.5773503   0.0000000), wk =   0.0133333
        k(   65) = (   0.1666667   0.2886751   0.0000000), wk =   0.0133333
        k(   66) = (   0.1666667   0.3271652   0.0000000), wk =   0.0266667
        k(   67) = (   0.1666667   0.3656552   0.0000000), wk =   0.0266667
        k(   68) = (   0.1666667   0.4041452   0.0000000), wk =   0.0266667
        k(   69) = (   0.1666667   0.4426352   0.0000000), wk =   0.0266667
        k(   70) = (   0.1666667   0.4811252   0.0000000), wk =   0.0266667
        k(   71) = (   0.1666667   0.5196152   0.0000000), wk =   0.0266667
        k(   72) = (   0.1666667   0.5581053   0.0000000), wk =   0.0266667
        k(   73) = (   0.2000000   0.3464102   0.0000000), wk =   0.0133333
        k(   74) = (   0.2000000   0.3849002   0.0000000), wk =   0.0266667
        k(   75) = (   0.2000000   0.4233902   0.0000000), wk =   0.0266667
        k(   76) = (   0.2000000   0.4618802   0.0000000), wk =   0.0266667
        k(   77) = (   0.2000000   0.5003702   0.0000000), wk =   0.0266667
        k(   78) = (   0.2000000   0.5388603   0.0000000), wk =   0.0266667
        k(   79) = (   0.2000000   0.5773503   0.0000000), wk =   0.0133333
        k(   80) = (   0.2333333   0.4041452   0.0000000), wk =   0.0133333
        k(   81) = (   0.2333333   0.4426352   0.0000000), wk =   0.0266667
        k(   82) = (   0.2333333   0.4811252   0.0000000), wk =   0.0266667
        k(   83) = (   0.2333333   0.5196152   0.0000000), wk =   0.0266667
        k(   84) = (   0.2333333   0.5581053   0.0000000), wk =   0.0266667
        k(   85) = (   0.2666667   0.4618802   0.0000000), wk =   0.0133333
        k(   86) = (   0.2666667   0.5003702   0.0000000), wk =   0.0266667
        k(   87) = (   0.2666667   0.5388603   0.0000000), wk =   0.0266667
        k(   88) = (   0.2666667   0.5773503   0.0000000), wk =   0.0133333
        k(   89) = (   0.3000000   0.5196152   0.0000000), wk =   0.0133333
        k(   90) = (   0.3000000   0.5581053   0.0000000), wk =   0.0266667
        k(   91) = (   0.3333333   0.5773503   0.0000000), wk =   0.0044444

     Dense  grid:   373933 G-vectors     FFT dimensions: (  60,  60, 240)

     Estimated max dynamical RAM per process >      47.90 MB

     Estimated total dynamical RAM >       2.99 GB

     Initial potential from superposition of free atoms

     starting charge      24.9985, renormalised to      25.0000

     negative rho (up, down):  2.483E-03 0.000E+00
     Starting wfcs are   45 randomized atomic wfcs

     total cpu time spent up to now is        3.1 secs

     Self-consistent Calculation

     iteration #  1     ecut=   200.00 Ry     beta= 0.70
     Davidson diagonalization with overlap
     ethr =  1.00E-02,  avg # of iterations =  1.9

     Threshold (ethr) on eigenvalues was too large:
     Diagonalizing with lowered threshold

     Davidson diagonalization with overlap
     ethr =  3.03E-04,  avg # of iterations =  3.5

     negative rho (up, down):  2.577E-06 0.000E+00

     total cpu time spent up to now is        9.2 secs

     total energy              =    -156.02780732 Ry
     estimated scf accuracy    <       0.08669903 Ry

     iteration #  2     ecut=   200.00 Ry     beta= 0.70
     Davidson diagonalization with overlap
     ethr =  3.47E-04,  avg # of iterations =  1.0

     total cpu time spent up to now is       11.6 secs

     total energy              =    -156.01925261 Ry
     estimated scf accuracy    <       0.04056596 Ry

     iteration #  3     ecut=   200.00 Ry     beta= 0.70
     Davidson diagonalization with overlap
     ethr =  1.62E-04,  avg # of iterations =  2.0

     total cpu time spent up to now is       14.5 secs

     total energy              =    -156.02431576 Ry
     estimated scf accuracy    <       0.00447114 Ry

     iteration #  4     ecut=   200.00 Ry     beta= 0.70
     Davidson diagonalization with overlap
     ethr =  1.79E-05,  avg # of iterations =  3.9

     total cpu time spent up to now is       17.8 secs

     total energy              =    -156.02436034 Ry
     estimated scf accuracy    <       0.00193410 Ry

     iteration #  5     ecut=   200.00 Ry     beta= 0.70
     Davidson diagonalization with overlap
     ethr =  7.74E-06,  avg # of iterations =  2.1

     total cpu time spent up to now is       20.7 secs

     total energy              =    -156.02444831 Ry
     estimated scf accuracy    <       0.00073043 Ry

     iteration #  6     ecut=   200.00 Ry     beta= 0.70
     Davidson diagonalization with overlap
     ethr =  2.92E-06,  avg # of iterations =  2.7

     total cpu time spent up to now is       23.8 secs

     total energy              =    -156.02462826 Ry
     estimated scf accuracy    <       0.00023809 Ry

     iteration #  7     ecut=   200.00 Ry     beta= 0.70
     Davidson diagonalization with overlap
     ethr =  9.52E-07,  avg # of iterations =  3.7

     total cpu time spent up to now is       27.2 secs

     total energy              =    -156.02469754 Ry
     estimated scf accuracy    <       0.00006383 Ry

     iteration #  8     ecut=   200.00 Ry     beta= 0.70
     Davidson diagonalization with overlap
     ethr =  2.55E-07,  avg # of iterations =  2.0

     negative rho (up, down):  4.354E-08 0.000E+00

     total cpu time spent up to now is       29.9 secs

     total energy              =    -156.02470420 Ry
     estimated scf accuracy    <       0.00001210 Ry

     iteration #  9     ecut=   200.00 Ry     beta= 0.70
     Davidson diagonalization with overlap
     ethr =  4.84E-08,  avg # of iterations =  3.7

     negative rho (up, down):  5.189E-07 0.000E+00

     total cpu time spent up to now is       33.5 secs

     total energy              =    -156.02470829 Ry
     estimated scf accuracy    <       0.00000044 Ry

     iteration # 10     ecut=   200.00 Ry     beta= 0.70
     Davidson diagonalization with overlap
     ethr =  1.75E-09,  avg # of iterations =  4.0

     negative rho (up, down):  1.072E-06 0.000E+00

     total cpu time spent up to now is       37.4 secs

     total energy              =    -156.02470847 Ry
     estimated scf accuracy    <       0.00000008 Ry

     iteration # 11     ecut=   200.00 Ry     beta= 0.70
     Davidson diagonalization with overlap
     ethr =  3.05E-10,  avg # of iterations =  2.5

     negative rho (up, down):  1.022E-06 0.000E+00

     total cpu time spent up to now is       40.6 secs

     total energy              =    -156.02470848 Ry
     estimated scf accuracy    <          1.1E-09 Ry

     iteration # 12     ecut=   200.00 Ry     beta= 0.70
     Davidson diagonalization with overlap
     ethr =  4.56E-12,  avg # of iterations =  5.4

     negative rho (up, down):  1.150E-06 0.000E+00

     total cpu time spent up to now is       45.5 secs

     total energy              =    -156.02470848 Ry
     estimated scf accuracy    <          9.7E-10 Ry

     iteration # 13     ecut=   200.00 Ry     beta= 0.70
     Davidson diagonalization with overlap
     ethr =  3.88E-12,  avg # of iterations =  2.0

     negative rho (up, down):  1.048E-06 0.000E+00

     total cpu time spent up to now is       48.6 secs

     total energy              =    -156.02470848 Ry
     estimated scf accuracy    <          2.5E-11 Ry

     iteration # 14     ecut=   200.00 Ry     beta= 0.70
     Davidson diagonalization with overlap
     ethr =  1.00E-13,  avg # of iterations =  5.1

     negative rho (up, down):  1.054E-06 0.000E+00

     total cpu time spent up to now is       53.7 secs

     total energy              =    -156.02470848 Ry
     estimated scf accuracy    <          5.8E-11 Ry

     iteration # 15     ecut=   200.00 Ry     beta= 0.70
     Davidson diagonalization with overlap
     ethr =  1.00E-13,  avg # of iterations =  2.0

     negative rho (up, down):  1.060E-06 0.000E+00

     total cpu time spent up to now is       56.7 secs

     total energy              =    -156.02470848 Ry
     estimated scf accuracy    <          6.3E-12 Ry

     iteration # 16     ecut=   200.00 Ry     beta= 0.70
     Davidson diagonalization with overlap
     ethr =  1.00E-13,  avg # of iterations =  2.0

     negative rho (up, down):  1.061E-06 0.000E+00

     total cpu time spent up to now is       59.3 secs

     End of self-consistent calculation

          k = 0.0000 0.0000 0.0000 ( 46815 PWs)   bands (ev):

   -53.9282 -30.0034 -29.9013 -29.9013 -12.3896 -11.4329  -3.6654  -0.6981
    -0.6981  -0.2187   0.2623   0.2623   1.7273   4.0476   4.0476   4.2343
     4.2343

          k = 0.0000 0.0385 0.0000 ( 46765 PWs)   bands (ev):

   -53.9280 -30.0029 -29.9039 -29.9019 -12.3773 -11.4273  -3.6487  -0.7412
    -0.6856  -0.2791   0.2374   0.2959   1.7186   4.0139   4.0749   4.1782
     4.2174

          k = 0.0000 0.0770 0.0000 ( 46743 PWs)   bands (ev):

   -53.9273 -30.0012 -29.9117 -29.9036 -12.3408 -11.4107  -3.5994  -0.8650
    -0.6486  -0.4227   0.1661   0.3561   1.6901   3.9313   4.0405   4.1531
     4.1688

          k = 0.0000 0.1155 0.0000 ( 46731 PWs)   bands (ev):

   -53.9263 -29.9985 -29.9243 -29.9065 -12.2810 -11.3835  -3.5196  -1.0552
    -0.6070  -0.5886   0.0569   0.3938   1.6360   3.8420   3.8757   4.0947
     4.2719

          k = 0.0000 0.1540 0.0000 ( 46743 PWs)   bands (ev):

   -53.9249 -29.9949 -29.9410 -29.9103 -12.1997 -11.3464  -3.4134  -1.2931
    -0.8152  -0.5080  -0.0790   0.3878   1.5491   3.7258   3.7878   4.0037
     4.4183

          k = 0.0000 0.1925 0.0000 ( 46721 PWs)   bands (ev):

   -53.9233 -29.9906 -29.9612 -29.9149 -12.0990 -11.3005  -3.2877  -1.5590
    -1.0416  -0.4102  -0.2306   0.3366   1.4270   3.6165   3.7930   3.9053
     4.5787

          k = 0.0000 0.2309 0.0000 ( 46700 PWs)   bands (ev):

   -53.9214 -29.9857 -29.9839 -29.9200 -11.9821 -11.2474  -3.1538  -1.8327
    -1.2827  -0.3881  -0.2999   0.2520   1.2770   3.5585   3.8091   3.8613
     4.7411

          k = 0.0000 0.2694 0.0000 ( 46722 PWs)   bands (ev):

   -53.9194 -30.0080 -29.9804 -29.9256 -11.8526 -11.1887  -3.0332  -2.0891
    -1.5341  -0.5438  -0.1824   0.1518   1.1167   3.5497   3.7233   3.9818
     4.8961

          k = 0.0000 0.3079 0.0000 ( 46732 PWs)   bands (ev):

   -53.9174 -30.0326 -29.9751 -29.9312 -11.7152 -11.1266  -2.9717  -2.2830
    -1.7888  -0.6917  -0.0638   0.0519   0.9689   3.5803   3.6545   4.1369
     5.0369

          k = 0.0000 0.3464 0.0000 ( 46736 PWs)   bands (ev):

   -53.9153 -30.0566 -29.9698 -29.9367 -11.5753 -11.0637  -3.0342  -2.3529
    -2.0374  -0.8271  -0.0376   0.0498   0.8554   3.6070   3.6388   4.3084
     5.1593

          k = 0.0000 0.3849 0.0000 ( 46760 PWs)   bands (ev):

   -53.9135 -30.0788 -29.9649 -29.9419 -11.4390 -11.0029  -3.1980  -2.3247
    -2.2695  -0.9465  -0.1121   0.1524   0.7914   3.5820   3.7141   4.4791
     5.2614

          k = 0.0000 0.4234 0.0000 ( 46742 PWs)   bands (ev):

   -53.9118 -30.0985 -29.9605 -29.9464 -11.3131 -10.9472  -3.3848  -2.4751
    -2.2753  -1.0472  -0.1702   0.2395   0.7808   3.5772   3.7966   4.6343
     5.3427

          k = 0.0000 0.4619 0.0000 ( 46746 PWs)   bands (ev):

   -53.9104 -30.1146 -29.9569 -29.9502 -11.2049 -10.8997  -3.5531  -2.6451
    -2.2378  -1.1274  -0.2130   0.3082   0.8134   3.5871   3.8776   4.7623
     5.4040

          k = 0.0000 0.5004 0.0000 ( 46756 PWs)   bands (ev):

   -53.9094 -30.1267 -29.9542 -29.9530 -11.1214 -10.8634  -3.6839  -2.7721
    -2.2171  -1.1855  -0.2419   0.3572   0.8670   3.6035   3.9480   4.8560
     5.4465

          k = 0.0000 0.5389 0.0000 ( 46744 PWs)   bands (ev):

   -53.9088 -30.1341 -29.9547 -29.9525 -11.0685 -10.8405  -3.7665  -2.8505
    -2.2083  -1.2208  -0.2585   0.3863   0.9143   3.6178   3.9974   4.9124
     5.4714

          k = 0.0000-0.5774 0.0000 ( 46704 PWs)   bands (ev):

   -53.9086 -30.1366 -29.9553 -29.9520 -11.0504 -10.8327  -3.7947  -2.8771
    -2.2060  -1.2326  -0.2640   0.3960   0.9329   3.6234   4.0154   4.9311
     5.4797

          k = 0.0333 0.0577 0.0000 ( 46765 PWs)   bands (ev):

   -53.9275 -30.0018 -29.9091 -29.9031 -12.3529 -11.4162  -3.6157  -0.8244
    -0.6611  -0.3784   0.1850   0.3445   1.7000   3.9546   4.0827   4.1290
     4.1840

          k = 0.0333 0.0962 0.0000 ( 46720 PWs)   bands (ev):

   -53.9267 -29.9996 -29.9192 -29.9054 -12.3048 -11.3943  -3.5511  -0.9805
    -0.6134  -0.5352   0.0839   0.3977   1.6587   3.8659   3.9353   4.1213
     4.2306

          k = 0.0333 0.1347 0.0000 ( 46717 PWs)   bands (ev):

   -53.9255 -29.9965 -29.9338 -29.9089 -12.2342 -11.3621  -3.4579  -1.1931
    -0.7232  -0.5444  -0.0523   0.4203   1.5881   3.7817   3.7911   4.0377
     4.3669

          k = 0.0333 0.1732 0.0000 ( 46716 PWs)   bands (ev):

   -53.9240 -29.9925 -29.9521 -29.9132 -12.1432 -11.3206  -3.3415  -1.4430
    -0.9333  -0.4575  -0.2092   0.3990   1.4833   3.6541   3.7639   3.9437
     4.5236

          k = 0.0333 0.2117 0.0000 ( 46713 PWs)   bands (ev):

   -53.9222 -29.9879 -29.9734 -29.9182 -12.0343 -11.2711  -3.2104  -1.7109
    -1.1621  -0.3730  -0.3570   0.3366   1.3468   3.5697   3.7989   3.8500
     4.6875

          k = 0.0333 0.2502 0.0000 ( 46712 PWs)   bands (ev):

   -53.9203 -29.9967 -29.9828 -29.9237 -11.9111 -11.2151  -3.0801  -1.9753
    -1.4064  -0.5330  -0.2484   0.2462   1.1919   3.5312   3.7676   3.8925
     4.8475

          k = 0.0333 0.2887 0.0000 ( 46733 PWs)   bands (ev):

   -53.9183 -30.0209 -29.9775 -29.9294 -11.7775 -11.1546  -2.9819  -2.2035
    -1.6601  -0.6820  -0.1385   0.1442   1.0399   3.5283   3.7081   4.0305
     4.9951

          k = 0.0333 0.3272 0.0000 ( 46737 PWs)   bands (ev):

   -53.9162 -30.0450 -29.9722 -29.9352 -11.6387 -11.0920  -2.9783  -2.3355
    -1.9139  -0.8162  -0.0343   0.0440   0.9146   3.5410   3.6863   4.1953
     5.1244

          k = 0.0333 0.3657 0.0000 ( 46752 PWs)   bands (ev):

   -53.9143 -30.0680 -29.9671 -29.9406 -11.5003 -11.0300  -3.1021  -2.3423
    -2.1570  -0.9337  -0.0454   0.0581   0.8354   3.5502   3.7125   4.3696
     5.2317

          k = 0.0333 0.4041 0.0000 ( 46744 PWs)   bands (ev):

   -53.9125 -30.0888 -29.9624 -29.9456 -11.3689 -10.9715  -3.2835  -2.3785
    -2.2952  -1.0337  -0.1199   0.1353   0.8108   3.5603   3.7715   4.5384
     5.3149

          k = 0.0333 0.4426 0.0000 ( 46741 PWs)   bands (ev):

   -53.9110 -30.1066 -29.9584 -29.9499 -11.2515 -10.9197  -3.4624  -2.5684
    -2.2498  -1.1151  -0.1780   0.1978   0.8341   3.5774   3.8436   4.6887
     5.3740

          k = 0.0333 0.4811 0.0000 ( 46760 PWs)   bands (ev):

   -53.9098 -30.1206 -29.9553 -29.9533 -11.1553 -10.8776  -3.6119  -2.7184
    -2.2212  -1.1771  -0.2201   0.2466   0.8863   3.5980   3.9161   4.8107
     5.4109

          k = 0.0333 0.5196 0.0000 ( 46750 PWs)   bands (ev):

   -53.9090 -30.1303 -29.9556 -29.9531 -11.0868 -10.8479  -3.7183  -2.8222
    -2.2075  -1.2189  -0.2473   0.2806   0.9422   3.6157   3.9774   4.8970
     5.4299

          k = 0.0333 0.5581 0.0000 ( 46729 PWs)   bands (ev):

   -53.9086 -30.1352 -29.9568 -29.9520 -11.0511 -10.8325  -3.7735  -2.8752
    -2.2027  -1.2399  -0.2605   0.2981   0.9777   3.6255   4.0135   4.9418
     5.4371

          k = 0.0667 0.1155 0.0000 ( 46695 PWs)   bands (ev):

   -53.9257 -29.9970 -29.9312 -29.9085 -12.2458 -11.3674  -3.4730  -1.1575
    -0.6864  -0.5581  -0.0589   0.4423   1.6009   3.7879   3.8039   4.0473
     4.3541

          k = 0.0667 0.1540 0.0000 ( 46703 PWs)   bands (ev):

   -53.9244 -29.9935 -29.9472 -29.9126 -12.1656 -11.3308  -3.3690  -1.3791
    -0.8625  -0.4859  -0.2373   0.4593   1.5120   3.6775   3.7352   3.9599
     4.5067

          k = 0.0667 0.1925 0.0000 ( 46716 PWs)   bands (ev):

   -53.9227 -29.9892 -29.9664 -29.9176 -12.0663 -11.2856  -3.2457  -1.6273
    -1.0615  -0.4266  -0.4014   0.4359   1.3920   3.5764   3.7335   3.8734
     4.6722

          k = 0.0667 0.2309 0.0000 ( 46737 PWs)   bands (ev):

   -53.9209 -29.9880 -29.9844 -29.9232 -11.9510 -11.2331  -3.1146  -1.8829
    -1.2850  -0.6057  -0.3110   0.3739   1.2501   3.5091   3.7909   3.8017
     4.8371

          k = 0.0667 0.2694 0.0000 ( 46716 PWs)   bands (ev):

   -53.9190 -30.0110 -29.9793 -29.9293 -11.8235 -11.1752  -2.9973  -2.1208
    -1.5301  -0.7619  -0.2225   0.2841   1.1051   3.4734   3.7553   3.9008
     4.9909

          k = 0.0667 0.3079 0.0000 ( 46749 PWs)   bands (ev):

   -53.9170 -30.0344 -29.9740 -29.9354 -11.6882 -11.1139  -2.9414  -2.2946
    -1.7863  -0.8920  -0.1445   0.1806   0.9809   3.4638   3.7392   4.0488
     5.1255

          k = 0.0667 0.3464 0.0000 ( 46719 PWs)   bands (ev):

   -53.9150 -30.0572 -29.9689 -29.9414 -11.5506 -11.0519  -3.0090  -2.3457
    -2.0400  -0.9983  -0.0834   0.0756   0.8991   3.4764   3.7507   4.2188
     5.2351

          k = 0.0667 0.3849 0.0000 ( 46746 PWs)   bands (ev):

   -53.9132 -30.0784 -29.9640 -29.9471 -11.4166 -10.9919  -3.1694  -2.3085
    -2.2776  -1.0841  -0.0391  -0.0217   0.8706   3.5080   3.7824   4.3960
     5.3152

          k = 0.0667 0.4234 0.0000 ( 46711 PWs)   bands (ev):

   -53.9115 -30.0971 -29.9598 -29.9520 -11.2930 -10.9369  -3.3483  -2.4877
    -2.2569  -1.1519  -0.1054  -0.0048   0.8906   3.5508   3.8289   4.5678
     5.3634

          k = 0.0667 0.4619 0.0000 ( 46747 PWs)   bands (ev):

   -53.9102 -30.1125 -29.9562 -29.9561 -11.1868 -10.8901  -3.5086  -2.6609
    -2.2199  -1.2036  -0.1722   0.0254   0.9428   3.5908   3.8884   4.7244
     5.3801

          k = 0.0667 0.5004 0.0000 ( 46754 PWs)   bands (ev):

   -53.9092 -30.1240 -29.9592 -29.9536 -11.1050 -10.8542  -3.6330  -2.7899
    -2.2005  -1.2399  -0.2205   0.0515   1.0057   3.6163   3.9551   4.8568
     5.3701

          k = 0.0667 0.5389 0.0000 ( 46743 PWs)   bands (ev):

   -53.9086 -30.1311 -29.9611 -29.9520 -11.0532 -10.8317  -3.7114  -2.8695
    -2.1930  -1.2616  -0.2496   0.0694   1.0566   3.6270   4.0109   4.9527
     5.3462

          k = 0.0667 0.5774 0.0000 ( 46750 PWs)   bands (ev):

   -53.9083 -30.1335 -29.9617 -29.9514 -11.0355 -10.8240  -3.7382  -2.8964
    -2.1913  -1.2688  -0.2593   0.0758   1.0761   3.6294   4.0330   4.9901
     5.3323

          k = 0.1000 0.1732 0.0000 ( 46685 PWs)   bands (ev):

   -53.9229 -29.9897 -29.9639 -29.9175 -12.0771 -11.2905  -3.2577  -1.5972
    -1.0185  -0.4590  -0.4183   0.4771   1.4076   3.5791   3.7058   3.8803
     4.6706

          k = 0.1000 0.2117 0.0000 ( 46689 PWs)   bands (ev):

   -53.9212 -29.9852 -29.9832 -29.9234 -11.9713 -11.2422  -3.1326  -1.8305
    -1.1983  -0.6793  -0.3488   0.4578   1.2817   3.4963   3.7238   3.8176
     4.8398

          k = 0.1000 0.2502 0.0000 ( 46706 PWs)   bands (ev):

   -53.9194 -30.0042 -29.9804 -29.9298 -11.8516 -11.1877  -3.0094  -2.0586
    -1.4139  -0.8652  -0.2867   0.4002   1.1496   3.4359   3.7823   3.7951
     5.0003

          k = 0.1000 0.2887 0.0000 ( 46716 PWs)   bands (ev):

   -53.9174 -30.0260 -29.9753 -29.9366 -11.7222 -11.1289  -2.9218  -2.2470
    -1.6620  -1.0044  -0.2419   0.3129   1.0333   3.4044   3.7740   3.9131
     5.1417

          k = 0.1000 0.3272 0.0000 ( 46735 PWs)   bands (ev):

   -53.9155 -30.0478 -29.9702 -29.9435 -11.5878 -11.0680  -2.9328  -2.3359
    -1.9225  -1.1045  -0.2207   0.2080   0.9543   3.4072   3.7850   4.0647
     5.2563

          k = 0.1000 0.3657 0.0000 ( 46737 PWs)   bands (ev):

   -53.9136 -30.0684 -29.9653 -29.9500 -11.4541 -11.0077  -3.0571  -2.3154
    -2.1752  -1.1762  -0.2197   0.0977   0.9240   3.4444   3.8065   4.2356
     5.3384

          k = 0.1000 0.4041 0.0000 ( 46720 PWs)   bands (ev):

   -53.9120 -30.0872 -29.9609 -29.9559 -11.3273 -10.9508  -3.2238  -2.4049
    -2.2595  -1.2269  -0.2267  -0.0081   0.9400   3.5069   3.8339   4.4131
     5.3841

          k = 0.1000 0.4426 0.0000 ( 46722 PWs)   bands (ev):

   -53.9105 -30.1032 -29.9610 -29.9571 -11.2144 -10.9004  -3.3846  -2.6008
    -2.2135  -1.2613  -0.2299  -0.1017   0.9902   3.5724   3.8734   4.5871
     5.3920

          k = 0.1000 0.4811 0.0000 ( 46744 PWs)   bands (ev):

   -53.9094 -30.1158 -29.9650 -29.9541 -11.1219 -10.8595  -3.5182  -2.7547
    -2.1875  -1.2833  -0.2259  -0.1771   1.0577   3.6114   3.9373   4.7498
     5.3642

          k = 0.1000 0.5196 0.0000 ( 46743 PWs)   bands (ev):

   -53.9086 -30.1246 -29.9678 -29.9520 -11.0563 -10.8306  -3.6131  -2.8606
    -2.1770  -1.2960  -0.2300  -0.2186   1.1220   3.6187   4.0134   4.8932
     5.3082

          k = 0.1000 0.5581 0.0000 ( 46742 PWs)   bands (ev):

   -53.9082 -30.1290 -29.9692 -29.9509 -11.0221 -10.8156  -3.6624  -2.9147
    -2.1744  -1.3017  -0.2573  -0.2134   1.1615   3.6143   4.0655   4.9978
     5.2462

          k = 0.1333 0.2309 0.0000 ( 46719 PWs)   bands (ev):

   -53.9195 -30.0017 -29.9808 -29.9302 -11.8611 -11.1920  -3.0139  -2.0353
    -1.3592  -0.9180  -0.3107   0.4445   1.1653   3.4225   3.7545   3.7908
     5.0055

          k = 0.1333 0.2694 0.0000 ( 46718 PWs)   bands (ev):

   -53.9177 -30.0213 -29.9760 -29.9377 -11.7395 -11.1365  -2.9140  -2.2154
    -1.5691  -1.0970  -0.2986   0.3924   1.0618   3.3722   3.7906   3.8318
     5.1544

          k = 0.1333 0.3079 0.0000 ( 46735 PWs)   bands (ev):

   -53.9158 -30.0411 -29.9710 -29.9455 -11.6107 -11.0778  -2.8843  -2.3210
    -1.8209  -1.2088  -0.3192   0.3081   0.9901   3.3602   3.8062   3.9503
     5.2767

          k = 0.1333 0.3464 0.0000 ( 46726 PWs)   bands (ev):

   -53.9140 -30.0603 -29.9662 -29.9532 -11.4799 -11.0184  -2.9653  -2.3169
    -2.0814  -1.2759  -0.3670   0.2028   0.9610   3.3923   3.8267   4.0987
     5.3662

          k = 0.1333 0.3849 0.0000 ( 46721 PWs)   bands (ev):

   -53.9123 -30.0781 -29.9617 -29.9605 -11.3531 -10.9610  -3.1072  -2.3266
    -2.2587  -1.3148  -0.4255   0.0885   0.9740   3.4619   3.8460   4.2639
     5.4188

          k = 0.1333 0.4234 0.0000 ( 46733 PWs)   bands (ev):

   -53.9108 -30.0938 -29.9670 -29.9577 -11.2364 -10.9084  -3.2558  -2.5421
    -2.2030  -1.3342  -0.4763  -0.0235   1.0214   3.5451   3.8709   4.4341
     5.4332

          k = 0.1333 0.4619 0.0000 ( 46729 PWs)   bands (ev):

   -53.9095 -30.1067 -29.9723 -29.9544 -11.1366 -10.8636  -3.3867  -2.7187
    -2.1689  -1.3402  -0.5098  -0.1236   1.0913   3.5974   3.9284   4.5994
     5.4115

          k = 0.1333 0.5004 0.0000 ( 46745 PWs)   bands (ev):

   -53.9086 -30.1163 -29.9763 -29.9520 -11.0598 -10.8293  -3.4877  -2.8495
    -2.1551  -1.3385  -0.5269  -0.2030   1.1667   3.5975   4.0235   4.7503
     5.3608

          k = 0.1333 0.5389 0.0000 ( 46768 PWs)   bands (ev):

   -53.9080 -30.1222 -29.9788 -29.9505 -11.0113 -10.8077  -3.5513  -2.9299
    -2.1525  -1.3346  -0.5335  -0.2543   1.2261   3.5761   4.1109   4.8715
     5.2979

          k = 0.1333 0.5774 0.0000 ( 46756 PWs)   bands (ev):

   -53.9078 -30.1242 -29.9796 -29.9499 -10.9947 -10.8003  -3.5730  -2.9571
    -2.1528  -1.3327  -0.5350  -0.2721   1.2489   3.5651   4.1459   4.9247
     5.2638

          k = 0.1667 0.2887 0.0000 ( 46733 PWs)   bands (ev):

   -53.9159 -30.0387 -29.9713 -29.9464 -11.6184 -11.0811  -2.8680  -2.3137
    -1.7755  -1.2564  -0.3550   0.3453   1.0024   3.3436   3.8132   3.9081
     5.2848

          k = 0.1667 0.3272 0.0000 ( 46708 PWs)   bands (ev):

   -53.9142 -30.0556 -29.9667 -29.9554 -11.4931 -11.0239  -2.9130  -2.3160
    -2.0195  -1.3444  -0.4504   0.2639   0.9797   3.3636   3.8374   4.0201
     5.3838

          k = 0.1667 0.3657 0.0000 ( 46703 PWs)   bands (ev):

   -53.9125 -30.0715 -29.9643 -29.9623 -11.3690 -10.9672  -3.0217  -2.2663
    -2.2563  -1.3869  -0.5654   0.1590   0.9933   3.4299   3.8557   4.1575
     5.4478

          k = 0.1667 0.4041 0.0000 ( 46723 PWs)   bands (ev):

   -53.9109 -30.0858 -29.9726 -29.9582 -11.2518 -10.9138  -3.1450  -2.4929
    -2.1906  -1.4012  -0.6762   0.0430   1.0391   3.5194   3.8740   4.3076
     5.4764

          k = 0.1667 0.4426 0.0000 ( 46739 PWs)   bands (ev):

   -53.9096 -30.0979 -29.9798 -29.9547 -11.1478 -10.8665  -3.2585  -2.6862
    -2.1458  -1.3968  -0.7647  -0.0716   1.1101   3.5787   3.9271   4.4580
     5.4726

          k = 0.1667 0.4811 0.0000 ( 46749 PWs)   bands (ev):

   -53.9086 -30.1073 -29.9855 -29.9520 -11.0631 -10.8280  -3.3508  -2.8379
    -2.1270  -1.3819  -0.8235  -0.1731   1.1945   3.5691   4.0376   4.5968
     5.4433

          k = 0.1667 0.5196 0.0000 ( 46731 PWs)   bands (ev):

   -53.9078 -30.1139 -29.9895 -29.9501 -11.0031 -10.8009  -3.4157  -2.9422
    -2.1255  -1.3646  -0.8562  -0.2498   1.2728   3.5250   4.1590   4.7100
     5.4016

          k = 0.1667 0.5581 0.0000 ( 46746 PWs)   bands (ev):

   -53.9075 -30.1172 -29.9915 -29.9491 -10.9720 -10.7868  -3.4491  -2.9952
    -2.1289  -1.3532  -0.8699  -0.2915   1.3210   3.4903   4.2363   4.7775
     5.3692

          k = 0.2000 0.3464 0.0000 ( 46699 PWs)   bands (ev):

   -53.9125 -30.0691 -29.9658 -29.9624 -11.3743 -10.9693  -2.9899  -2.2550
    -2.2427  -1.4154  -0.6163   0.1848   0.9995   3.4185   3.8592   4.1191
     5.4588

          k = 0.2000 0.3849 0.0000 ( 46711 PWs)   bands (ev):

   -53.9110 -30.0811 -29.9761 -29.9584 -11.2597 -10.9165  -3.0794  -2.4638
    -2.1812  -1.4416  -0.7910   0.0812   1.0468   3.5042   3.8769   4.2369
     5.5026

          k = 0.2000 0.4234 0.0000 ( 46732 PWs)   bands (ev):

   -53.9097 -30.0912 -29.9856 -29.9549 -11.1549 -10.8682  -3.1615  -2.6629
    -2.1232  -1.4385  -0.9493  -0.0339   1.1191   3.5633   3.9287   4.3606
     5.5193

          k = 0.2000 0.4619 0.0000 ( 46753 PWs)   bands (ev):

   -53.9086 -30.0993 -29.9937 -29.9520 -11.0657 -10.8271  -3.2277  -2.8280
    -2.0941  -1.4175  -1.0721  -0.1471   1.2101   3.5434   4.0503   4.4772
     5.5152

          k = 0.2000 0.5004 0.0000 ( 46767 PWs)   bands (ev):

   -53.9077 -30.1051 -30.0000 -29.9498 -10.9975 -10.7956  -3.2750  -2.9511
    -2.0921  -1.3891  -1.1517  -0.2442   1.3048   3.4755   4.1993   4.5744
     5.4989

          k = 0.2000 0.5389 0.0000 ( 46756 PWs)   bands (ev):

   -53.9072 -30.1087 -30.0040 -29.9485 -10.9546 -10.7758  -3.3030  -3.0269
    -2.1023  -1.3649  -1.1931  -0.3110   1.3794   3.4096   4.3179   4.6400
     5.4817

          k = 0.2000 0.5774 0.0000 ( 46781 PWs)   bands (ev):

   -53.9070 -30.1098 -30.0053 -29.9480 -10.9399 -10.7691  -3.3123  -3.0525
    -2.1081  -1.3553  -1.2055  -0.3350   1.4082   3.3827   4.3633   4.6633
     5.4743

          k = 0.2333 0.4041 0.0000 ( 46727 PWs)   bands (ev):

   -53.9097 -30.0887 -29.9879 -29.9550 -11.1573 -10.8688  -3.1247  -2.6544
    -2.1128  -1.4538  -1.0186  -0.0202   1.1217   3.5575   3.9296   4.3261
     5.5365

          k = 0.2333 0.4426 0.0000 ( 46764 PWs)   bands (ev):

   -53.9086 -30.0943 -29.9989 -29.9520 -11.0671 -10.8265  -3.1520  -2.8223
    -2.0668  -1.4375  -1.2225  -0.1320   1.2170   3.5284   4.0575   4.4128
     5.5559

          k = 0.2333 0.4811 0.0000 ( 46741 PWs)   bands (ev):

   -53.9077 -30.0980 -30.0082 -29.9496 -10.9942 -10.7923  -3.1618  -2.9565
    -2.0537  -1.4052  -1.3787  -0.2395   1.3237   3.4403   4.2254   4.4861
     5.5662

          k = 0.2333 0.5196 0.0000 ( 46749 PWs)   bands (ev):

   -53.9070 -30.1002 -30.0151 -29.9480 -10.9428 -10.7681  -3.1597  -3.0497
    -2.0703  -1.4734  -1.3705  -0.3264   1.4222   3.3423   4.3779   4.5386
     5.5711

          k = 0.2333 0.5581 0.0000 ( 46744 PWs)   bands (ev):

   -53.9067 -30.1011 -30.0188 -29.9472 -10.9162 -10.7556  -3.1548  -3.0973
    -2.0916  -1.5138  -1.3476  -0.3759   1.4837   3.2781   4.4695   4.5657
     5.5730

          k = 0.2667 0.4619 0.0000 ( 46753 PWs)   bands (ev):

   -53.9076 -30.0952 -30.0115 -29.9496 -10.9931 -10.7911  -3.1170  -2.9583
    -2.0321  -1.4707  -1.4109  -0.2376   1.3300   3.4276   4.2344   4.4556
     5.5901

          k = 0.2667 0.5004 0.0000 ( 46760 PWs)   bands (ev):

   -53.9070 -30.0944 -30.0223 -29.9478 -10.9368 -10.7641  -3.0635  -3.0616
    -2.0348  -1.6588  -1.3725  -0.3348   1.4454   3.3041   4.4094   4.4852
     5.6203

          k = 0.2667 0.5389 0.0000 ( 46741 PWs)   bands (ev):

   -53.9065 -30.0930 -30.0299 -29.9467 -10.9017 -10.7471  -3.1259  -3.0098
    -2.0804  -1.7534  -1.3383  -0.4053   1.5373   3.2013   4.5018   4.5393
     5.6416

          k = 0.2667 0.5774 0.0000 ( 46751 PWs)   bands (ev):

   -53.9064 -30.0923 -30.0327 -29.9463 -10.8897 -10.7413  -3.1478  -2.9859
    -2.1112  -1.7761  -1.3244  -0.4315   1.5734   3.1606   4.5070   4.5878
     5.6493

          k = 0.3000 0.5196 0.0000 ( 46749 PWs)   bands (ev):

   -53.9065 -30.0894 -30.0346 -29.9465 -10.8968 -10.7442  -3.1357  -2.9447
    -2.0757  -1.8514  -1.3343  -0.4161   1.5570   3.1729   4.4797   4.5635
     5.6660

          k = 0.3000 0.5581 0.0000 ( 46743 PWs)   bands (ev):

   -53.9062 -30.0851 -30.0426 -29.9458 -10.8762 -10.7339  -3.1740  -2.8446
    -2.1830  -1.9035  -1.3082  -0.4642   1.6277   3.0894   4.4752   4.6526
     5.6921

          k = 0.3333 0.5774 0.0000 ( 46785 PWs)   bands (ev):

   -53.9061 -30.0808 -30.0485 -29.9456 -10.8675 -10.7294  -3.1905  -2.7485
    -2.2824  -1.9299  -1.2958  -0.4863   1.6632   3.0458   4.4656   4.6935
     5.7103

     the Fermi energy is     1.1399 ev

!    total energy              =    -156.02470848 Ry
     estimated scf accuracy    <          5.6E-14 Ry
     smearing contrib. (-TS)   =      -0.00981840 Ry
     internal energy E=F+TS    =    -156.01489008 Ry

     The total energy is F=E-TS. E is the sum of the following terms:
     one-electron contribution =    -449.44908795 Ry
     hartree contribution      =     226.59769905 Ry
     xc contribution           =     -26.77343970 Ry
     ewald contribution        =      93.60993851 Ry

     convergence has been achieved in  16 iterations

     negative rho (up, down):  1.061E-06 0.000E+00

     Forces acting on atoms (cartesian axes, Ry/au):

     atom    1 type  1   force =     0.00000000   -0.00000000    0.00000000
     atom    2 type  2   force =     0.00000000   -0.00000000    0.00000995
     atom    3 type  2   force =     0.00000000    0.00000000   -0.00000995

     Total force =     0.000014     Total SCF correction =     0.000001


     Computing stress (Cartesian axis) and pressure


     negative rho (up, down):  1.061E-06 0.000E+00
          total   stress  (Ry/bohr**3)                   (kbar)     P=       -0.06
  -0.00000061  -0.00000000   0.00000000           -0.09       -0.00        0.00
  -0.00000000  -0.00000061   0.00000000           -0.00       -0.09        0.00
   0.00000000  -0.00000000  -0.00000001            0.00       -0.00       -0.00


     Writing all to output data dir ./outdir/0.01.save/
 
     init_run     :      2.68s CPU      2.80s WALL (       1 calls)
     electrons    :     55.35s CPU     56.37s WALL (       1 calls)
     forces       :      0.21s CPU      0.23s WALL (       1 calls)
     stress       :      0.60s CPU      0.61s WALL (       1 calls)

     Called by init_run:
     wfcinit      :      2.44s CPU      2.50s WALL (       1 calls)
     potinit      :      0.03s CPU      0.03s WALL (       1 calls)
     hinit0       :      0.11s CPU      0.16s WALL (       1 calls)

     Called by electrons:
     c_bands      :     44.69s CPU     45.48s WALL (      17 calls)
     sum_band     :      7.27s CPU      7.41s WALL (      17 calls)
     v_of_rho     :      0.13s CPU      0.13s WALL (      17 calls)
     newd         :      0.29s CPU      0.30s WALL (      17 calls)
     mix_rho      :      2.95s CPU      2.97s WALL (      17 calls)

     Called by c_bands:
     init_us_2    :      0.58s CPU      0.60s WALL (    3367 calls)
     init_us_2:cp :      0.57s CPU      0.60s WALL (    3367 calls)
     cegterg      :     42.21s CPU     42.91s WALL (    1547 calls)

     Called by *egterg:
     cdiaghg      :      1.88s CPU      1.94s WALL (    5979 calls)
     h_psi        :     36.97s CPU     37.50s WALL (    6161 calls)
     s_psi        :      0.86s CPU      0.90s WALL (    6161 calls)
     g_psi        :      0.10s CPU      0.10s WALL (    4523 calls)

     Called by h_psi:
     h_psi:calbec :      1.71s CPU      1.80s WALL (    6161 calls)
     vloc_psi     :     34.17s CPU     34.56s WALL (    6161 calls)
     add_vuspsi   :      0.94s CPU      0.98s WALL (    6161 calls)

     General routines
     calbec       :      2.33s CPU      2.46s WALL (    8163 calls)
     fft          :      0.14s CPU      0.14s WALL (     213 calls)
     ffts         :      2.09s CPU      2.11s WALL (    4552 calls)
     fftw         :     38.31s CPU     38.76s WALL (  173821 calls)
 
     Parallel routines
 
     PWSCF        :   1m 0.89s CPU   1m 6.84s WALL

 
   This run was terminated on:   8:47:10  18Jun2022            

=------------------------------------------------------------------------------=
   JOB DONE.
=------------------------------------------------------------------------------=
