
     Program PWSCF v.7.0 starts on 18Jun2022 at  8:43:18 

     This program is part of the open-source Quantum ESPRESSO suite
     for quantum simulation of materials; please cite
         "P. Giannozzi et al., J. Phys.:Condens. Matter 21 395502 (2009);
         "P. Giannozzi et al., J. Phys.:Condens. Matter 29 465901 (2017);
         "P. Giannozzi et al., J. Chem. Phys. 152 154105 (2020);
          URL http://www.quantum-espresso.org", 
     in publications or presentations arising from this work. More details at
     http://www.quantum-espresso.org/quote

     Parallel version (MPI), running on    64 processors

     MPI processes distributed on     1 nodes
     468395 MiB available memory on the printing compute node when the environment starts
 
     Reading input from ./inputs/0.02-scf.in
Warning: card &CELL ignored
Warning: card / ignored

     Current dimensions of program PWSCF are:
     Max number of different atomic species (ntypx) = 10
     Max number of k-points (npk) =  40000
     Max angular momentum in pseudopotentials (lmaxx) =  4
     file Nb.pbe-spn-rrkjus_psl.1.0.0.UPF: wavefunction(s)  4S 4P renormalized
     file Se.pbe-mt_fhi.UPF: wavefunction(s)  4f renormalized
     Message from routine setup:
     using ibrav=0 with symmetry is DISCOURAGED, use correct ibrav instead
 
     R & G space division:  proc/nbgrp/npool/nimage =      64
     Subspace diagonalization in iterative solution of the eigenvalue problem:
     a serial algorithm will be used

 
     Parallelization info
     --------------------
     sticks:   dense  smooth     PW     G-vecs:    dense   smooth      PW
     Min          37      37     10                 5843     5843     828
     Max          38      38     11                 5858     5858     847
     Sum        2395    2395    649               374425   374425   53367
 
     Using Slab Decomposition
 


     bravais-lattice index     =            0
     lattice parameter (alat)  =       6.5809  a.u.
     unit-cell volume          =     979.3217 (a.u.)^3
     number of atoms/cell      =            3
     number of atomic types    =            2
     number of electrons       =        25.00
     number of Kohn-Sham states=           17
     kinetic-energy cutoff     =     200.0000  Ry
     charge density cutoff     =     800.0000  Ry
     scf convergence threshold =      1.0E-12
     mixing beta               =       0.7000
     number of iterations used =            8  local-TF  mixing
     Exchange-correlation= PBE
                           (   1   4   3   4   0   0   0)

     celldm(1)=   6.580915  celldm(2)=   0.000000  celldm(3)=   0.000000
     celldm(4)=   0.000000  celldm(5)=   0.000000  celldm(6)=   0.000000

     crystal axes: (cart. coord. in units of alat)
               a(1) = (   1.000000   0.000000   0.000000 )  
               a(2) = (  -0.500000   0.866025   0.000000 )  
               a(3) = (   0.000000   0.000000   3.967673 )  

     reciprocal axes: (cart. coord. in units 2 pi/alat)
               b(1) = (  1.000000  0.577350  0.000000 )  
               b(2) = (  0.000000  1.154701  0.000000 )  
               b(3) = (  0.000000  0.000000  0.252037 )  


     PseudoPot. # 1 for Nb read from file:
     ./PP/Nb.pbe-spn-rrkjus_psl.1.0.0.UPF
     MD5 check sum: 6ee677a9f002bd3e3657f443f129faad
     Pseudo is Ultrasoft + core correction, Zval = 13.0
     Generated using &quot;atomic&quot; code by A. Dal Corso  v.6.2.2
     Using radial grid of 1227 points,  6 beta functions with: 
                l(1) =   0
                l(2) =   0
                l(3) =   1
                l(4) =   1
                l(5) =   2
                l(6) =   2
     Q(r) pseudized with 0 coefficients 


     PseudoPot. # 2 for Se read from file:
     ./PP/Se.pbe-mt_fhi.UPF
     MD5 check sum: 761aa2365a2a775fd78ad90d13f3567a
     Pseudo is Norm-conserving, Zval =  6.0
     Generated using FHI98PP, converted with fhi2upf.x v.5.0.2
     Using radial grid of  533 points,  3 beta functions with: 
                l(1) =   0
                l(2) =   1
                l(3) =   3

     atomic species   valence    mass     pseudopotential
        Nb            13.00    92.90000     Nb( 1.00)
        Se             6.00    78.96000     Se( 1.00)

     12 Sym. Ops. (no inversion) found



   Cartesian axes

     site n.     atom                  positions (alat units)
         1           Nb  tau(   1) = (   0.0000000   0.0000000   1.9838365  )
         2           Se  tau(   2) = (  -0.0000000   0.5773503   1.5006598  )
         3           Se  tau(   3) = (  -0.0000000   0.5773503   2.4670132  )

     number of k points=    91  Fermi-Dirac smearing, width (Ry)=  0.0200
                       cart. coord. in units 2pi/alat
        k(    1) = (   0.0000000   0.0000000   0.0000000), wk =   0.0022222
        k(    2) = (   0.0000000   0.0384900   0.0000000), wk =   0.0133333
        k(    3) = (   0.0000000   0.0769800   0.0000000), wk =   0.0133333
        k(    4) = (   0.0000000   0.1154701   0.0000000), wk =   0.0133333
        k(    5) = (   0.0000000   0.1539601   0.0000000), wk =   0.0133333
        k(    6) = (   0.0000000   0.1924501   0.0000000), wk =   0.0133333
        k(    7) = (   0.0000000   0.2309401   0.0000000), wk =   0.0133333
        k(    8) = (   0.0000000   0.2694301   0.0000000), wk =   0.0133333
        k(    9) = (   0.0000000   0.3079201   0.0000000), wk =   0.0133333
        k(   10) = (   0.0000000   0.3464102   0.0000000), wk =   0.0133333
        k(   11) = (   0.0000000   0.3849002   0.0000000), wk =   0.0133333
        k(   12) = (   0.0000000   0.4233902   0.0000000), wk =   0.0133333
        k(   13) = (   0.0000000   0.4618802   0.0000000), wk =   0.0133333
        k(   14) = (   0.0000000   0.5003702   0.0000000), wk =   0.0133333
        k(   15) = (   0.0000000   0.5388603   0.0000000), wk =   0.0133333
        k(   16) = (   0.0000000  -0.5773503   0.0000000), wk =   0.0066667
        k(   17) = (   0.0333333   0.0577350   0.0000000), wk =   0.0133333
        k(   18) = (   0.0333333   0.0962250   0.0000000), wk =   0.0266667
        k(   19) = (   0.0333333   0.1347151   0.0000000), wk =   0.0266667
        k(   20) = (   0.0333333   0.1732051   0.0000000), wk =   0.0266667
        k(   21) = (   0.0333333   0.2116951   0.0000000), wk =   0.0266667
        k(   22) = (   0.0333333   0.2501851   0.0000000), wk =   0.0266667
        k(   23) = (   0.0333333   0.2886751   0.0000000), wk =   0.0266667
        k(   24) = (   0.0333333   0.3271652   0.0000000), wk =   0.0266667
        k(   25) = (   0.0333333   0.3656552   0.0000000), wk =   0.0266667
        k(   26) = (   0.0333333   0.4041452   0.0000000), wk =   0.0266667
        k(   27) = (   0.0333333   0.4426352   0.0000000), wk =   0.0266667
        k(   28) = (   0.0333333   0.4811252   0.0000000), wk =   0.0266667
        k(   29) = (   0.0333333   0.5196152   0.0000000), wk =   0.0266667
        k(   30) = (   0.0333333   0.5581053   0.0000000), wk =   0.0266667
        k(   31) = (   0.0666667   0.1154701   0.0000000), wk =   0.0133333
        k(   32) = (   0.0666667   0.1539601   0.0000000), wk =   0.0266667
        k(   33) = (   0.0666667   0.1924501   0.0000000), wk =   0.0266667
        k(   34) = (   0.0666667   0.2309401   0.0000000), wk =   0.0266667
        k(   35) = (   0.0666667   0.2694301   0.0000000), wk =   0.0266667
        k(   36) = (   0.0666667   0.3079201   0.0000000), wk =   0.0266667
        k(   37) = (   0.0666667   0.3464102   0.0000000), wk =   0.0266667
        k(   38) = (   0.0666667   0.3849002   0.0000000), wk =   0.0266667
        k(   39) = (   0.0666667   0.4233902   0.0000000), wk =   0.0266667
        k(   40) = (   0.0666667   0.4618802   0.0000000), wk =   0.0266667
        k(   41) = (   0.0666667   0.5003702   0.0000000), wk =   0.0266667
        k(   42) = (   0.0666667   0.5388603   0.0000000), wk =   0.0266667
        k(   43) = (   0.0666667   0.5773503   0.0000000), wk =   0.0133333
        k(   44) = (   0.1000000   0.1732051   0.0000000), wk =   0.0133333
        k(   45) = (   0.1000000   0.2116951   0.0000000), wk =   0.0266667
        k(   46) = (   0.1000000   0.2501851   0.0000000), wk =   0.0266667
        k(   47) = (   0.1000000   0.2886751   0.0000000), wk =   0.0266667
        k(   48) = (   0.1000000   0.3271652   0.0000000), wk =   0.0266667
        k(   49) = (   0.1000000   0.3656552   0.0000000), wk =   0.0266667
        k(   50) = (   0.1000000   0.4041452   0.0000000), wk =   0.0266667
        k(   51) = (   0.1000000   0.4426352   0.0000000), wk =   0.0266667
        k(   52) = (   0.1000000   0.4811252   0.0000000), wk =   0.0266667
        k(   53) = (   0.1000000   0.5196152   0.0000000), wk =   0.0266667
        k(   54) = (   0.1000000   0.5581053   0.0000000), wk =   0.0266667
        k(   55) = (   0.1333333   0.2309401   0.0000000), wk =   0.0133333
        k(   56) = (   0.1333333   0.2694301   0.0000000), wk =   0.0266667
        k(   57) = (   0.1333333   0.3079201   0.0000000), wk =   0.0266667
        k(   58) = (   0.1333333   0.3464102   0.0000000), wk =   0.0266667
        k(   59) = (   0.1333333   0.3849002   0.0000000), wk =   0.0266667
        k(   60) = (   0.1333333   0.4233902   0.0000000), wk =   0.0266667
        k(   61) = (   0.1333333   0.4618802   0.0000000), wk =   0.0266667
        k(   62) = (   0.1333333   0.5003702   0.0000000), wk =   0.0266667
        k(   63) = (   0.1333333   0.5388603   0.0000000), wk =   0.0266667
        k(   64) = (   0.1333333   0.5773503   0.0000000), wk =   0.0133333
        k(   65) = (   0.1666667   0.2886751   0.0000000), wk =   0.0133333
        k(   66) = (   0.1666667   0.3271652   0.0000000), wk =   0.0266667
        k(   67) = (   0.1666667   0.3656552   0.0000000), wk =   0.0266667
        k(   68) = (   0.1666667   0.4041452   0.0000000), wk =   0.0266667
        k(   69) = (   0.1666667   0.4426352   0.0000000), wk =   0.0266667
        k(   70) = (   0.1666667   0.4811252   0.0000000), wk =   0.0266667
        k(   71) = (   0.1666667   0.5196152   0.0000000), wk =   0.0266667
        k(   72) = (   0.1666667   0.5581053   0.0000000), wk =   0.0266667
        k(   73) = (   0.2000000   0.3464102   0.0000000), wk =   0.0133333
        k(   74) = (   0.2000000   0.3849002   0.0000000), wk =   0.0266667
        k(   75) = (   0.2000000   0.4233902   0.0000000), wk =   0.0266667
        k(   76) = (   0.2000000   0.4618802   0.0000000), wk =   0.0266667
        k(   77) = (   0.2000000   0.5003702   0.0000000), wk =   0.0266667
        k(   78) = (   0.2000000   0.5388603   0.0000000), wk =   0.0266667
        k(   79) = (   0.2000000   0.5773503   0.0000000), wk =   0.0133333
        k(   80) = (   0.2333333   0.4041452   0.0000000), wk =   0.0133333
        k(   81) = (   0.2333333   0.4426352   0.0000000), wk =   0.0266667
        k(   82) = (   0.2333333   0.4811252   0.0000000), wk =   0.0266667
        k(   83) = (   0.2333333   0.5196152   0.0000000), wk =   0.0266667
        k(   84) = (   0.2333333   0.5581053   0.0000000), wk =   0.0266667
        k(   85) = (   0.2666667   0.4618802   0.0000000), wk =   0.0133333
        k(   86) = (   0.2666667   0.5003702   0.0000000), wk =   0.0266667
        k(   87) = (   0.2666667   0.5388603   0.0000000), wk =   0.0266667
        k(   88) = (   0.2666667   0.5773503   0.0000000), wk =   0.0133333
        k(   89) = (   0.3000000   0.5196152   0.0000000), wk =   0.0133333
        k(   90) = (   0.3000000   0.5581053   0.0000000), wk =   0.0266667
        k(   91) = (   0.3333333   0.5773503   0.0000000), wk =   0.0044444

     Dense  grid:   374425 G-vectors     FFT dimensions: (  60,  60, 240)

     Estimated max dynamical RAM per process >      47.93 MB

     Estimated total dynamical RAM >       3.00 GB

     Initial potential from superposition of free atoms

     starting charge      24.9985, renormalised to      25.0000

     negative rho (up, down):  2.421E-03 0.000E+00
     Starting wfcs are   45 randomized atomic wfcs

     total cpu time spent up to now is        3.3 secs

     Self-consistent Calculation

     iteration #  1     ecut=   200.00 Ry     beta= 0.70
     Davidson diagonalization with overlap
     ethr =  1.00E-02,  avg # of iterations =  1.9

     Threshold (ethr) on eigenvalues was too large:
     Diagonalizing with lowered threshold

     Davidson diagonalization with overlap
     ethr =  3.02E-04,  avg # of iterations =  3.7

     negative rho (up, down):  2.693E-06 0.000E+00

     total cpu time spent up to now is        9.7 secs

     total energy              =    -156.04041429 Ry
     estimated scf accuracy    <       0.08733902 Ry

     iteration #  2     ecut=   200.00 Ry     beta= 0.70
     Davidson diagonalization with overlap
     ethr =  3.49E-04,  avg # of iterations =  1.0

     total cpu time spent up to now is       12.1 secs

     total energy              =    -156.03064160 Ry
     estimated scf accuracy    <       0.04110993 Ry

     iteration #  3     ecut=   200.00 Ry     beta= 0.70
     Davidson diagonalization with overlap
     ethr =  1.64E-04,  avg # of iterations =  2.0

     total cpu time spent up to now is       15.0 secs

     total energy              =    -156.03685365 Ry
     estimated scf accuracy    <       0.00360027 Ry

     iteration #  4     ecut=   200.00 Ry     beta= 0.70
     Davidson diagonalization with overlap
     ethr =  1.44E-05,  avg # of iterations =  4.0

     total cpu time spent up to now is       18.4 secs

     total energy              =    -156.03684345 Ry
     estimated scf accuracy    <       0.00195347 Ry

     iteration #  5     ecut=   200.00 Ry     beta= 0.70
     Davidson diagonalization with overlap
     ethr =  7.81E-06,  avg # of iterations =  2.0

     total cpu time spent up to now is       21.3 secs

     total energy              =    -156.03687409 Ry
     estimated scf accuracy    <       0.00105009 Ry

     iteration #  6     ecut=   200.00 Ry     beta= 0.70
     Davidson diagonalization with overlap
     ethr =  4.20E-06,  avg # of iterations =  2.0

     total cpu time spent up to now is       24.1 secs

     total energy              =    -156.03700450 Ry
     estimated scf accuracy    <       0.00033235 Ry

     iteration #  7     ecut=   200.00 Ry     beta= 0.70
     Davidson diagonalization with overlap
     ethr =  1.33E-06,  avg # of iterations =  4.0

     total cpu time spent up to now is       27.6 secs

     total energy              =    -156.03711482 Ry
     estimated scf accuracy    <       0.00011989 Ry

     iteration #  8     ecut=   200.00 Ry     beta= 0.70
     Davidson diagonalization with overlap
     ethr =  4.80E-07,  avg # of iterations =  1.9

     total cpu time spent up to now is       30.3 secs

     total energy              =    -156.03711757 Ry
     estimated scf accuracy    <       0.00002465 Ry

     iteration #  9     ecut=   200.00 Ry     beta= 0.70
     Davidson diagonalization with overlap
     ethr =  9.86E-08,  avg # of iterations =  3.8

     negative rho (up, down):  4.645E-07 0.000E+00

     total cpu time spent up to now is       33.8 secs

     total energy              =    -156.03712560 Ry
     estimated scf accuracy    <       0.00000079 Ry

     iteration # 10     ecut=   200.00 Ry     beta= 0.70
     Davidson diagonalization with overlap
     ethr =  3.15E-09,  avg # of iterations =  4.3

     negative rho (up, down):  6.223E-07 0.000E+00

     total cpu time spent up to now is       37.6 secs

     total energy              =    -156.03712585 Ry
     estimated scf accuracy    <       0.00000037 Ry

     iteration # 11     ecut=   200.00 Ry     beta= 0.70
     Davidson diagonalization with overlap
     ethr =  1.46E-09,  avg # of iterations =  2.0

     negative rho (up, down):  7.781E-07 0.000E+00

     total cpu time spent up to now is       40.7 secs

     total energy              =    -156.03712587 Ry
     estimated scf accuracy    <       0.00000003 Ry

     iteration # 12     ecut=   200.00 Ry     beta= 0.70
     Davidson diagonalization with overlap
     ethr =  1.00E-10,  avg # of iterations =  4.0

     negative rho (up, down):  8.132E-07 0.000E+00

     total cpu time spent up to now is       44.8 secs

     total energy              =    -156.03712589 Ry
     estimated scf accuracy    <          4.2E-09 Ry

     iteration # 13     ecut=   200.00 Ry     beta= 0.70
     Davidson diagonalization with overlap
     ethr =  1.69E-11,  avg # of iterations =  2.0

     negative rho (up, down):  7.627E-07 0.000E+00

     total cpu time spent up to now is       48.0 secs

     total energy              =    -156.03712589 Ry
     estimated scf accuracy    <          1.5E-10 Ry

     iteration # 14     ecut=   200.00 Ry     beta= 0.70
     Davidson diagonalization with overlap
     ethr =  5.89E-13,  avg # of iterations =  5.1

     negative rho (up, down):  7.531E-07 0.000E+00

     total cpu time spent up to now is       52.8 secs

     total energy              =    -156.03712589 Ry
     estimated scf accuracy    <          3.2E-10 Ry

     iteration # 15     ecut=   200.00 Ry     beta= 0.70
     Davidson diagonalization with overlap
     ethr =  5.89E-13,  avg # of iterations =  2.0

     negative rho (up, down):  7.576E-07 0.000E+00

     total cpu time spent up to now is       55.9 secs

     total energy              =    -156.03712589 Ry
     estimated scf accuracy    <          7.5E-12 Ry

     iteration # 16     ecut=   200.00 Ry     beta= 0.70
     Davidson diagonalization with overlap
     ethr =  1.00E-13,  avg # of iterations =  3.4

     negative rho (up, down):  7.584E-07 0.000E+00

     total cpu time spent up to now is       58.9 secs

     End of self-consistent calculation

          k = 0.0000 0.0000 0.0000 ( 46815 PWs)   bands (ev):

   -53.8934 -29.9719 -29.8678 -29.8678 -12.3917 -11.4429  -3.6616  -0.6811
    -0.6811  -0.2335   0.2727   0.2727   1.7337   4.0492   4.0492   4.2290
     4.2290

          k = 0.0000 0.0385 0.0000 ( 46813 PWs)   bands (ev):

   -53.8932 -29.9713 -29.8704 -29.8684 -12.3795 -11.4373  -3.6449  -0.7244
    -0.6687  -0.2906   0.2478   0.3026   1.7251   4.0159   4.0765   4.1732
     4.2123

          k = 0.0000 0.0770 0.0000 ( 46789 PWs)   bands (ev):

   -53.8926 -29.9697 -29.8782 -29.8702 -12.3431 -11.4206  -3.5956  -0.8490
    -0.6321  -0.4292   0.1764   0.3566   1.6970   3.9342   4.0364   4.1546
     4.1644

          k = 0.0000 0.1155 0.0000 ( 46767 PWs)   bands (ev):

   -53.8915 -29.9670 -29.8907 -29.8730 -12.2835 -11.3933  -3.5160  -1.0404
    -0.6097  -0.5726   0.0671   0.3890   1.6435   3.8462   3.8727   4.0914
     4.2733

          k = 0.0000 0.1540 0.0000 ( 46795 PWs)   bands (ev):

   -53.8902 -29.9634 -29.9075 -29.8768 -12.2023 -11.3562  -3.4099  -1.2798
    -0.8154  -0.4929  -0.0689   0.3788   1.5575   3.7239   3.7932   4.0018
     4.4195

          k = 0.0000 0.1925 0.0000 ( 46757 PWs)   bands (ev):

   -53.8885 -29.9591 -29.9276 -29.8814 -12.1019 -11.3102  -3.2842  -1.5474
    -1.0403  -0.3964  -0.2204   0.3247   1.4366   3.6160   3.7992   3.9052
     4.5795

          k = 0.0000 0.2309 0.0000 ( 46740 PWs)   bands (ev):

   -53.8867 -29.9542 -29.9503 -29.8865 -11.9853 -11.2569  -3.1501  -1.8232
    -1.2806  -0.3780  -0.2876   0.2386   1.2879   3.5594   3.8112   3.8677
     4.7416

          k = 0.0000 0.2694 0.0000 ( 46762 PWs)   bands (ev):

   -53.8847 -29.9744 -29.9489 -29.8921 -11.8563 -11.1981  -3.0286  -2.0824
    -1.5319  -0.5338  -0.1719   0.1380   1.1288   3.5522   3.7280   3.9877
     4.8962

          k = 0.0000 0.3079 0.0000 ( 46774 PWs)   bands (ev):

   -53.8826 -29.9989 -29.9436 -29.8977 -11.7193 -11.1359  -2.9652  -2.2799
    -1.7868  -0.6816  -0.0553   0.0384   0.9821   3.5846   3.6620   4.1421
     5.0366

          k = 0.0000 0.3464 0.0000 ( 46794 PWs)   bands (ev):

   -53.8806 -30.0228 -29.9383 -29.9032 -11.5797 -11.0729  -3.0262  -2.3528
    -2.0359  -0.8170  -0.0505   0.0559   0.8693   3.6176   3.6449   4.3125
     5.1587

          k = 0.0000 0.3849 0.0000 ( 46804 PWs)   bands (ev):

   -53.8787 -30.0451 -29.9334 -29.9083 -11.4438 -11.0119  -3.1905  -2.3251
    -2.2686  -0.9364  -0.1241   0.1562   0.8055   3.5957   3.7223   4.4822
     5.2603

          k = 0.0000 0.4234 0.0000 ( 46768 PWs)   bands (ev):

   -53.8771 -30.0646 -29.9290 -29.9129 -11.3183 -10.9561  -3.3783  -2.4747
    -2.2749  -1.0371  -0.1816   0.2410   0.7943   3.5940   3.8072   4.6364
     5.3413

          k = 0.0000 0.4619 0.0000 ( 46800 PWs)   bands (ev):

   -53.8757 -30.0808 -29.9254 -29.9166 -11.2104 -10.9086  -3.5476  -2.6452
    -2.2364  -1.1173  -0.2237   0.3077   0.8259   3.6065   3.8907   4.7637
     5.4023

          k = 0.0000 0.5004 0.0000 ( 46796 PWs)   bands (ev):

   -53.8747 -30.0928 -29.9227 -29.9195 -11.1271 -10.8721  -3.6791  -2.7725
    -2.2146  -1.1754  -0.2522   0.3551   0.8782   3.6250   3.9636   4.8569
     5.4446

          k = 0.0000 0.5389 0.0000 ( 46782 PWs)   bands (ev):

   -53.8741 -30.1002 -29.9212 -29.9211 -11.0744 -10.8492  -3.7621  -2.8511
    -2.2051  -1.2107  -0.2686   0.3833   0.9245   3.6407   4.0149   4.9129
     5.4694

          k = 0.0000-0.5774 0.0000 ( 46780 PWs)   bands (ev):

   -53.8738 -30.1028 -29.9218 -29.9205 -11.0563 -10.8414  -3.7905  -2.8777
    -2.2026  -1.2225  -0.2739   0.3926   0.9428   3.6467   4.0337   4.9315
     5.4776

          k = 0.0333 0.0577 0.0000 ( 46797 PWs)   bands (ev):

   -53.8928 -29.9702 -29.8756 -29.8696 -12.3551 -11.4261  -3.6119  -0.8081
    -0.6444  -0.3862   0.1953   0.3467   1.7068   3.9571   4.0783   4.1305
     4.1794

          k = 0.0333 0.0962 0.0000 ( 46752 PWs)   bands (ev):

   -53.8919 -29.9680 -29.8857 -29.8720 -12.3071 -11.4042  -3.5474  -0.9652
    -0.5972  -0.5392   0.0939   0.3950   1.6660   3.8696   3.9318   4.1175
     4.2320

          k = 0.0333 0.1347 0.0000 ( 46761 PWs)   bands (ev):

   -53.8907 -29.9649 -29.9002 -29.8754 -12.2368 -11.3719  -3.4544  -1.1791
    -0.7245  -0.5290  -0.0427   0.4135   1.5962   3.7793   3.7961   4.0353
     4.3681

          k = 0.0333 0.1732 0.0000 ( 46772 PWs)   bands (ev):

   -53.8892 -29.9610 -29.9186 -29.8797 -12.1460 -11.3304  -3.3380  -1.4306
    -0.9326  -0.4432  -0.1999   0.3891   1.4924   3.6529   3.7700   3.9429
     4.5246

          k = 0.0333 0.2117 0.0000 ( 46752 PWs)   bands (ev):

   -53.8875 -29.9563 -29.9398 -29.8847 -12.0374 -11.2807  -3.2069  -1.7004
    -1.1603  -0.3640  -0.3440   0.3247   1.3572   3.5699   3.8055   3.8514
     4.6881

          k = 0.0333 0.2502 0.0000 ( 46744 PWs)   bands (ev):

   -53.8855 -29.9631 -29.9513 -29.8902 -11.9145 -11.2246  -3.0761  -1.9672
    -1.4042  -0.5241  -0.2372   0.2334   1.2036   3.5328   3.7714   3.8989
     4.8477

          k = 0.0333 0.2887 0.0000 ( 46757 PWs)   bands (ev):

   -53.8835 -29.9872 -29.9460 -29.8959 -11.7814 -11.1640  -2.9765  -2.1986
    -1.6580  -0.6730  -0.1293   0.1313   1.0529   3.5317   3.7144   4.0363
     4.9950

          k = 0.0333 0.3272 0.0000 ( 46769 PWs)   bands (ev):

   -53.8815 -30.0113 -29.9406 -29.9016 -11.6429 -11.1012  -2.9708  -2.3343
    -1.9122  -0.8070  -0.0272   0.0315   0.9285   3.5471   3.6946   4.2002
     5.1239

          k = 0.0333 0.3657 0.0000 ( 46788 PWs)   bands (ev):

   -53.8796 -30.0342 -29.9356 -29.9071 -11.5050 -11.0391  -3.0942  -2.3427
    -2.1558  -0.9245  -0.0574   0.0629   0.8496   3.5604   3.7219   4.3735
     5.2307

          k = 0.0333 0.4041 0.0000 ( 46788 PWs)   bands (ev):

   -53.8778 -30.0550 -29.9309 -29.9121 -11.3739 -10.9805  -3.2766  -2.3777
    -2.2952  -1.0243  -0.1313   0.1380   0.8246   3.5743   3.7823   4.5413
     5.3136

          k = 0.0333 0.4426 0.0000 ( 46769 PWs)   bands (ev):

   -53.8763 -30.0727 -29.9269 -29.9163 -11.2569 -10.9286  -3.4565  -2.5680
    -2.2489  -1.1055  -0.1888   0.1986   0.8469   3.5947   3.8563   4.6907
     5.3724

          k = 0.0333 0.4811 0.0000 ( 46803 PWs)   bands (ev):

   -53.8751 -30.0867 -29.9238 -29.9197 -11.1609 -10.8864  -3.6068  -2.7184
    -2.2192  -1.1675  -0.2305   0.2458   0.8978   3.6180   3.9310   4.8121
     5.4090

          k = 0.0333 0.5196 0.0000 ( 46782 PWs)   bands (ev):

   -53.8743 -30.0964 -29.9220 -29.9216 -11.0926 -10.8566  -3.7138  -2.8224
    -2.2047  -1.2093  -0.2573   0.2785   0.9526   3.6375   3.9944   4.8979
     5.4279

          k = 0.0333 0.5581 0.0000 ( 46769 PWs)   bands (ev):

   -53.8738 -30.1013 -29.9232 -29.9205 -11.0570 -10.8411  -3.7693  -2.8755
    -2.1994  -1.2303  -0.2704   0.2954   0.9875   3.6483   4.0318   4.9425
     5.4350

          k = 0.0667 0.1155 0.0000 ( 46731 PWs)   bands (ev):

   -53.8909 -29.9654 -29.8977 -29.8750 -12.2484 -11.3772  -3.4694  -1.1432
    -0.6882  -0.5426  -0.0496   0.4365   1.6089   3.7928   3.8013   4.0447
     4.3554

          k = 0.0667 0.1540 0.0000 ( 46743 PWs)   bands (ev):

   -53.8896 -29.9619 -29.9136 -29.8791 -12.1683 -11.3406  -3.3655  -1.3662
    -0.8625  -0.4714  -0.2286   0.4508   1.5209   3.6758   3.7413   3.9590
     4.5077

          k = 0.0667 0.1925 0.0000 ( 46755 PWs)   bands (ev):

   -53.8880 -29.9577 -29.9328 -29.8841 -12.0693 -11.2952  -3.2423  -1.6161
    -1.0602  -0.4185  -0.3883   0.4254   1.4021   3.5759   3.7405   3.8746
     4.6728

          k = 0.0667 0.2309 0.0000 ( 46771 PWs)   bands (ev):

   -53.8862 -29.9544 -29.9529 -29.8897 -11.9544 -11.2426  -3.1109  -1.8737
    -1.2830  -0.5981  -0.2996   0.3623   1.2616   3.5098   3.7981   3.8051
     4.8374

          k = 0.0667 0.2694 0.0000 ( 46752 PWs)   bands (ev):

   -53.8842 -29.9773 -29.9478 -29.8957 -11.8272 -11.1846  -2.9927  -2.1144
    -1.5278  -0.7544  -0.2131   0.2721   1.1180   3.4758   3.7612   3.9076
     4.9908

          k = 0.0667 0.3079 0.0000 ( 46789 PWs)   bands (ev):

   -53.8822 -30.0007 -29.9425 -29.9019 -11.6923 -11.1232  -2.9347  -2.2918
    -1.7842  -0.8845  -0.1372   0.1687   0.9949   3.4683   3.7475   4.0549
     5.1250

          k = 0.0667 0.3464 0.0000 ( 46770 PWs)   bands (ev):

   -53.8803 -30.0235 -29.9374 -29.9079 -11.5550 -11.0610  -3.0009  -2.3458
    -2.0382  -0.9907  -0.0782   0.0641   0.9137   3.4836   3.7611   4.2239
     5.2341

          k = 0.0667 0.3849 0.0000 ( 46783 PWs)   bands (ev):

   -53.8784 -30.0446 -29.9326 -29.9135 -11.4214 -11.0009  -3.1619  -2.3090
    -2.2761  -1.0763  -0.0356  -0.0328   0.8850   3.5184   3.7947   4.4001
     5.3139

          k = 0.0667 0.4234 0.0000 ( 46754 PWs)   bands (ev):

   -53.8768 -30.0633 -29.9283 -29.9185 -11.2982 -10.9458  -3.3420  -2.4866
    -2.2566  -1.1439  -0.1160  -0.0030   0.9041   3.5646   3.8429   4.5709
     5.3619

          k = 0.0667 0.4619 0.0000 ( 46781 PWs)   bands (ev):

   -53.8755 -30.0787 -29.9248 -29.9226 -11.1924 -10.8989  -3.5032  -2.6601
    -2.2185  -1.1954  -0.1825   0.0257   0.9552   3.6077   3.9039   4.7267
     5.3784

          k = 0.0667 0.5004 0.0000 ( 46798 PWs)   bands (ev):

   -53.8745 -30.0901 -29.9256 -29.9221 -11.1108 -10.8630  -3.6283  -2.7894
    -2.1981  -1.2317  -0.2305   0.0504   1.0171   3.6359   3.9720   4.8586
     5.3682

          k = 0.0667 0.5389 0.0000 ( 46795 PWs)   bands (ev):

   -53.8738 -30.0972 -29.9275 -29.9205 -11.0591 -10.8404  -3.7072  -2.8691
    -2.1899  -1.2533  -0.2593   0.0674   1.0671   3.6484   4.0290   4.9542
     5.3441

          k = 0.0667 0.5774 0.0000 ( 46814 PWs)   bands (ev):

   -53.8736 -30.0996 -29.9282 -29.9199 -11.0414 -10.8327  -3.7341  -2.8961
    -2.1879  -1.2605  -0.2690   0.0734   1.0863   3.6514   4.0515   4.9916
     5.3301

          k = 0.1000 0.1732 0.0000 ( 46715 PWs)   bands (ev):

   -53.8882 -29.9581 -29.9303 -29.8840 -12.0801 -11.3001  -3.2543  -1.5857
    -1.0175  -0.4510  -0.4052   0.4670   1.4177   3.5783   3.7129   3.8814
     4.6712

          k = 0.1000 0.2117 0.0000 ( 46734 PWs)   bands (ev):

   -53.8865 -29.9537 -29.9496 -29.8898 -11.9746 -11.2518  -3.1291  -1.8207
    -1.1967  -0.6719  -0.3374   0.4465   1.2931   3.4966   3.7316   3.8210
     4.8401

          k = 0.1000 0.2502 0.0000 ( 46756 PWs)   bands (ev):

   -53.8846 -29.9705 -29.9489 -29.8963 -11.8553 -11.1972  -3.0053  -2.0511
    -1.4117  -0.8585  -0.2774   0.3884   1.1625   3.4376   3.7881   3.8029
     5.0002

          k = 0.1000 0.2887 0.0000 ( 46763 PWs)   bands (ev):

   -53.8827 -29.9923 -29.9438 -29.9031 -11.7262 -11.1382  -2.9160  -2.2429
    -1.6595  -0.9980  -0.2348   0.3010   1.0476   3.4080   3.7822   3.9204
     5.1411

          k = 0.1000 0.3272 0.0000 ( 46781 PWs)   bands (ev):

   -53.8808 -30.0140 -29.9387 -29.9099 -11.5922 -11.0772  -2.9249  -2.3354
    -1.9201  -1.0983  -0.2155   0.1965   0.9694   3.4129   3.7957   4.0711
     5.2553

          k = 0.1000 0.3657 0.0000 ( 46775 PWs)   bands (ev):

   -53.8789 -30.0347 -29.9338 -29.9164 -11.4588 -11.0167  -3.0492  -2.3162
    -2.1729  -1.1701  -0.2161   0.0866   0.9392   3.4523   3.8197   4.2411
     5.3372

          k = 0.1000 0.4041 0.0000 ( 46760 PWs)   bands (ev):

   -53.8772 -30.0534 -29.9294 -29.9223 -11.3325 -10.9598  -3.2170  -2.4028
    -2.2599  -1.2206  -0.2244  -0.0187   0.9546   3.5172   3.8494   4.4175
     5.3827

          k = 0.1000 0.4426 0.0000 ( 46760 PWs)   bands (ev):

   -53.8758 -30.0694 -29.9274 -29.9256 -11.2198 -10.9093  -3.3789  -2.5989
    -2.2129  -1.2550  -0.2289  -0.1119   1.0040   3.5855   3.8906   4.5906
     5.3905

          k = 0.1000 0.4811 0.0000 ( 46788 PWs)   bands (ev):

   -53.8746 -30.0820 -29.9314 -29.9226 -11.1277 -10.8683  -3.5133  -2.7530
    -2.1857  -1.2770  -0.2263  -0.1870   1.0706   3.6279   3.9550   4.7525
     5.3626

          k = 0.1000 0.5196 0.0000 ( 46775 PWs)   bands (ev):

   -53.8738 -30.0907 -29.9342 -29.9205 -11.0622 -10.8393  -3.6089  -2.8591
    -2.1743  -1.2896  -0.2396  -0.2202   1.1340   3.6381   4.0314   4.8955
     5.3065

          k = 0.1000 0.5581 0.0000 ( 46793 PWs)   bands (ev):

   -53.8734 -30.0951 -29.9356 -29.9194 -11.0281 -10.8243  -3.6584  -2.9132
    -2.1711  -1.2953  -0.2668  -0.2156   1.1730   3.6352   4.0838   5.0003
     5.2440

          k = 0.1333 0.2309 0.0000 ( 46745 PWs)   bands (ev):

   -53.8848 -29.9681 -29.9492 -29.8967 -11.8647 -11.2014  -3.0099  -2.0275
    -1.3572  -0.9113  -0.3015   0.4326   1.1782   3.4240   3.7627   3.7966
     5.0053

          k = 0.1333 0.2694 0.0000 ( 46746 PWs)   bands (ev):

   -53.8829 -29.9876 -29.9444 -29.9042 -11.7434 -11.1458  -2.9087  -2.2103
    -1.5665  -1.0911  -0.2917   0.3804   1.0762   3.3752   3.7988   3.8398
     5.1538

          k = 0.1333 0.3079 0.0000 ( 46793 PWs)   bands (ev):

   -53.8811 -30.0074 -29.9395 -29.9120 -11.6150 -11.0871  -2.8769  -2.3196
    -1.8179  -1.2035  -0.3142   0.2962   1.0056   3.3650   3.8170   3.9578
     5.2758

          k = 0.1333 0.3464 0.0000 ( 46766 PWs)   bands (ev):

   -53.8793 -30.0265 -29.9347 -29.9197 -11.4846 -11.0275  -2.9570  -2.3178
    -2.0783  -1.2711  -0.3635   0.1913   0.9769   3.3987   3.8402   4.1053
     5.3651

          k = 0.1333 0.3849 0.0000 ( 46753 PWs)   bands (ev):

   -53.8775 -30.0443 -29.9302 -29.9269 -11.3581 -10.9700  -3.0998  -2.3234
    -2.2597  -1.3103  -0.4230   0.0776   0.9897   3.4698   3.8624   4.2695
     5.4176

          k = 0.1333 0.4234 0.0000 ( 46769 PWs)   bands (ev):

   -53.8760 -30.0600 -29.9334 -29.9263 -11.2418 -10.9173  -3.2496  -2.5390
    -2.2032  -1.3299  -0.4749  -0.0339   1.0365   3.5548   3.8897   4.4386
     5.4320

          k = 0.1333 0.4619 0.0000 ( 46761 PWs)   bands (ev):

   -53.8748 -30.0729 -29.9387 -29.9230 -11.1423 -10.8724  -3.3816  -2.7157
    -2.1679  -1.3360  -0.5097  -0.1335   1.1057   3.6104   3.9474   4.6029
     5.4104

          k = 0.1333 0.5004 0.0000 ( 46788 PWs)   bands (ev):

   -53.8738 -30.0825 -29.9427 -29.9205 -11.0657 -10.8380  -3.4834  -2.8466
    -2.1530  -1.3344  -0.5279  -0.2126   1.1805   3.6146   4.0415   4.7530
     5.3599

          k = 0.1333 0.5389 0.0000 ( 46794 PWs)   bands (ev):

   -53.8733 -30.0884 -29.9452 -29.9190 -11.0174 -10.8164  -3.5474  -2.9270
    -2.1496  -1.3305  -0.5353  -0.2637   1.2393   3.5959   4.1284   4.8736
     5.2973

          k = 0.1333 0.5774 0.0000 ( 46814 PWs)   bands (ev):

   -53.8731 -30.0904 -29.9460 -29.9185 -11.0008 -10.8090  -3.5693  -2.9542
    -2.1495  -1.3286  -0.5371  -0.2814   1.2618   3.5858   4.1632   4.9265
     5.2634

          k = 0.1667 0.2887 0.0000 ( 46765 PWs)   bands (ev):

   -53.8812 -30.0050 -29.9398 -29.9128 -11.6227 -11.0904  -2.8607  -2.3120
    -1.7723  -1.2515  -0.3502   0.3332   1.0180   3.3481   3.8240   3.9160
     5.2839

          k = 0.1667 0.3272 0.0000 ( 46764 PWs)   bands (ev):

   -53.8794 -30.0219 -29.9352 -29.9219 -11.4978 -11.0330  -2.9046  -2.3168
    -2.0157  -1.3404  -0.4470   0.2521   0.9959   3.3694   3.8511   4.0275
     5.3827

          k = 0.1667 0.3657 0.0000 ( 46741 PWs)   bands (ev):

   -53.8777 -30.0377 -29.9308 -29.9307 -11.3740 -10.9762  -3.0139  -2.2621
    -2.2577  -1.3837  -0.5629   0.1476   1.0097   3.4365   3.8725   4.1641
     5.4467

          k = 0.1667 0.4041 0.0000 ( 46765 PWs)   bands (ev):

   -53.8762 -30.0520 -29.9390 -29.9267 -11.2572 -10.9227  -3.1384  -2.4885
    -2.1915  -1.3984  -0.6746   0.0323   1.0553   3.5267   3.8938   4.3130
     5.4755

          k = 0.1667 0.4426 0.0000 ( 46771 PWs)   bands (ev):

   -53.8749 -30.0641 -29.9461 -29.9233 -11.1535 -10.8753  -3.2530  -2.6818
    -2.1458  -1.3945  -0.7640  -0.0817   1.1259   3.5889   3.9471   4.4623
     5.4720

          k = 0.1667 0.4811 0.0000 ( 46782 PWs)   bands (ev):

   -53.8738 -30.0735 -29.9519 -29.9205 -11.0690 -10.8368  -3.3463  -2.8335
    -2.1257  -1.3799  -0.8239  -0.1826   1.2098   3.5843   4.0555   4.6000
     5.4432

          k = 0.1667 0.5196 0.0000 ( 46777 PWs)   bands (ev):

   -53.8731 -30.0800 -29.9559 -29.9186 -11.0092 -10.8096  -3.4118  -2.9377
    -2.1231  -1.3629  -0.8575  -0.2590   1.2876   3.5437   4.1754   4.7122
     5.4021

          k = 0.1667 0.5581 0.0000 ( 46800 PWs)   bands (ev):

   -53.8728 -30.0833 -29.9579 -29.9176 -10.9782 -10.7955  -3.4456  -2.9908
    -2.1259  -1.3516  -0.8718  -0.3005   1.3355   3.5107   4.2521   4.7789
     5.3701

          k = 0.2000 0.3464 0.0000 ( 46729 PWs)   bands (ev):

   -53.8778 -30.0353 -29.9322 -29.9309 -11.3793 -10.9783  -2.9819  -2.2565
    -2.2382  -1.4127  -0.6138   0.1733   1.0162   3.4246   3.8762   4.1260
     5.4577

          k = 0.2000 0.3849 0.0000 ( 46741 PWs)   bands (ev):

   -53.8763 -30.0473 -29.9425 -29.9270 -11.2650 -10.9254  -3.0724  -2.4587
    -2.1827  -1.4398  -0.7892   0.0702   1.0636   3.5104   3.8971   4.2429
     5.5018

          k = 0.2000 0.4234 0.0000 ( 46781 PWs)   bands (ev):

   -53.8750 -30.0574 -29.9520 -29.9234 -11.1605 -10.8771  -3.1556  -2.6576
    -2.1241  -1.4375  -0.9481  -0.0443   1.1359   3.5719   3.9494   4.3655
     5.5190

          k = 0.2000 0.4619 0.0000 ( 46807 PWs)   bands (ev):

   -53.8738 -30.0654 -29.9601 -29.9205 -11.0716 -10.8359  -3.2228  -2.8224
    -2.0939  -1.4172  -1.0717  -0.1568   1.2266   3.5572   4.0680   4.4809
     5.5155

          k = 0.2000 0.5004 0.0000 ( 46809 PWs)   bands (ev):

   -53.8730 -30.0713 -29.9664 -29.9183 -11.0036 -10.8044  -3.2710  -2.9453
    -2.0905  -1.3894  -1.1523  -0.2533   1.3210   3.4933   4.2148   4.5769
     5.5000

          k = 0.2000 0.5389 0.0000 ( 46806 PWs)   bands (ev):

   -53.8725 -30.0748 -29.9703 -29.9170 -10.9608 -10.7846  -3.2997  -3.0211
    -2.0997  -1.3656  -1.1945  -0.3196   1.3952   3.4297   4.3323   4.6415
     5.4834

          k = 0.2000 0.5774 0.0000 ( 46827 PWs)   bands (ev):

   -53.8723 -30.0760 -29.9717 -29.9165 -10.9462 -10.7778  -3.3091  -3.0467
    -2.1051  -1.3561  -1.2072  -0.3434   1.4239   3.4036   4.3774   4.6645
     5.4763

          k = 0.2333 0.4041 0.0000 ( 46791 PWs)   bands (ev):

   -53.8750 -30.0548 -29.9542 -29.9235 -11.1630 -10.8776  -3.1186  -2.6486
    -2.1141  -1.4533  -1.0171  -0.0306   1.1388   3.5655   3.9505   4.3312
     5.5363

          k = 0.2333 0.4426 0.0000 ( 46806 PWs)   bands (ev):

   -53.8738 -30.0604 -29.9652 -29.9205 -11.0730 -10.8354  -3.1469  -2.8160
    -2.0675  -1.4382  -1.2215  -0.1418   1.2341   3.5415   4.0752   4.4168
     5.5565

          k = 0.2333 0.4811 0.0000 ( 46789 PWs)   bands (ev):

   -53.8729 -30.0642 -29.9746 -29.9182 -11.0003 -10.8011  -3.1576  -2.9499
    -2.0533  -1.4069  -1.3784  -0.2485   1.3408   3.4574   4.2403   4.4889
     5.5677

          k = 0.2333 0.5196 0.0000 ( 46800 PWs)   bands (ev):

   -53.8723 -30.0664 -29.9815 -29.9165 -10.9490 -10.7768  -3.1563  -3.0428
    -2.0684  -1.4741  -1.3729  -0.3347   1.4391   3.3621   4.3912   4.5403
     5.5734

          k = 0.2333 0.5581 0.0000 ( 46793 PWs)   bands (ev):

   -53.8720 -30.0673 -29.9852 -29.9157 -10.9225 -10.7643  -3.1519  -3.0904
    -2.0888  -1.5151  -1.3505  -0.3838   1.5003   3.2992   4.4821   4.5669
     5.5758

          k = 0.2667 0.4619 0.0000 ( 46809 PWs)   bands (ev):

   -53.8729 -30.0613 -29.9778 -29.9181 -10.9992 -10.7999  -3.1126  -2.9514
    -2.0323  -1.4699  -1.4131  -0.2466   1.3475   3.4445   4.2491   4.4585
     5.5917

          k = 0.2667 0.5004 0.0000 ( 46790 PWs)   bands (ev):

   -53.8722 -30.0606 -29.9886 -29.9163 -10.9431 -10.7728  -3.0600  -3.0542
    -2.0340  -1.6585  -1.3760  -0.3429   1.4628   3.3236   4.4221   4.4871
     5.6228

          k = 0.2667 0.5389 0.0000 ( 46785 PWs)   bands (ev):

   -53.8718 -30.0592 -29.9962 -29.9152 -10.9081 -10.7558  -3.1183  -3.0070
    -2.0781  -1.7540  -1.3427  -0.4128   1.5545   3.2223   4.5030   4.5508
     5.6447

          k = 0.2667 0.5774 0.0000 ( 46791 PWs)   bands (ev):

   -53.8717 -30.0585 -29.9990 -29.9148 -10.8961 -10.7500  -3.1400  -2.9834
    -2.1083  -1.7771  -1.3292  -0.4387   1.5905   3.1821   4.5080   4.5989
     5.6526

          k = 0.3000 0.5196 0.0000 ( 46793 PWs)   bands (ev):

   -53.8717 -30.0556 -30.0009 -29.9150 -10.9032 -10.7529  -3.1278  -2.9418
    -2.0741  -1.8515  -1.3392  -0.4233   1.5745   3.1939   4.4809   4.5746
     5.6693

          k = 0.3000 0.5581 0.0000 ( 46780 PWs)   bands (ev):

   -53.8715 -30.0513 -30.0089 -29.9144 -10.8826 -10.7426  -3.1659  -2.8423
    -2.1809  -1.9036  -1.3140  -0.4708   1.6451   3.1113   4.4761   4.6629
     5.6957

          k = 0.3333 0.5774 0.0000 ( 46821 PWs)   bands (ev):

   -53.8714 -30.0470 -30.0148 -29.9141 -10.8740 -10.7381  -3.1822  -2.7465
    -2.2805  -1.9296  -1.3021  -0.4926   1.6807   3.0679   4.4664   4.7034
     5.7141

     the Fermi energy is     1.2004 ev

!    total energy              =    -156.03712589 Ry
     estimated scf accuracy    <          8.4E-14 Ry
     smearing contrib. (-TS)   =      -0.02978533 Ry
     internal energy E=F+TS    =    -156.00734056 Ry

     The total energy is F=E-TS. E is the sum of the following terms:
     one-electron contribution =    -449.16341788 Ry
     hartree contribution      =     226.46681050 Ry
     xc contribution           =     -26.77048763 Ry
     ewald contribution        =      93.45975444 Ry

     convergence has been achieved in  16 iterations

     negative rho (up, down):  7.584E-07 0.000E+00

     Forces acting on atoms (cartesian axes, Ry/au):

     atom    1 type  1   force =     0.00000000    0.00000000    0.00000000
     atom    2 type  2   force =     0.00000000    0.00000000   -0.00000184
     atom    3 type  2   force =     0.00000000    0.00000000    0.00000184

     Total force =     0.000003     Total SCF correction =     0.000001
     SCF correction compared to forces is large: reduce conv_thr to get better values


     Computing stress (Cartesian axis) and pressure


     negative rho (up, down):  7.584E-07 0.000E+00
          total   stress  (Ry/bohr**3)                   (kbar)     P=       -0.38
  -0.00000386  -0.00000000   0.00000000           -0.57       -0.00        0.00
  -0.00000000  -0.00000386  -0.00000000           -0.00       -0.57       -0.00
   0.00000000   0.00000000   0.00000006            0.00        0.00        0.01


     Writing all to output data dir ./outdir/0.02.save/
 
     init_run     :      2.75s CPU      2.87s WALL (       1 calls)
     electrons    :     54.51s CPU     55.59s WALL (       1 calls)
     forces       :      0.21s CPU      0.23s WALL (       1 calls)
     stress       :      0.60s CPU      0.61s WALL (       1 calls)

     Called by init_run:
     wfcinit      :      2.45s CPU      2.50s WALL (       1 calls)
     potinit      :      0.03s CPU      0.03s WALL (       1 calls)
     hinit0       :      0.18s CPU      0.22s WALL (       1 calls)

     Called by electrons:
     c_bands      :     44.02s CPU     44.83s WALL (      17 calls)
     sum_band     :      7.21s CPU      7.35s WALL (      17 calls)
     v_of_rho     :      0.13s CPU      0.13s WALL (      17 calls)
     newd         :      0.30s CPU      0.30s WALL (      17 calls)
     mix_rho      :      2.83s CPU      2.87s WALL (      17 calls)

     Called by c_bands:
     init_us_2    :      0.59s CPU      0.61s WALL (    3367 calls)
     init_us_2:cp :      0.58s CPU      0.61s WALL (    3367 calls)
     cegterg      :     41.54s CPU     42.29s WALL (    1547 calls)

     Called by *egterg:
     cdiaghg      :      1.85s CPU      1.94s WALL (    5918 calls)
     h_psi        :     36.39s CPU     36.90s WALL (    6100 calls)
     s_psi        :      0.83s CPU      0.87s WALL (    6100 calls)
     g_psi        :      0.09s CPU      0.10s WALL (    4462 calls)

     Called by h_psi:
     h_psi:calbec :      1.71s CPU      1.82s WALL (    6100 calls)
     vloc_psi     :     33.62s CPU     33.97s WALL (    6100 calls)
     add_vuspsi   :      0.90s CPU      0.96s WALL (    6100 calls)

     General routines
     calbec       :      2.32s CPU      2.47s WALL (    8102 calls)
     fft          :      0.13s CPU      0.14s WALL (     213 calls)
     ffts         :      1.98s CPU      2.00s WALL (    4356 calls)
     fftw         :     37.70s CPU     38.08s WALL (  171547 calls)
 
     Parallel routines
 
     PWSCF        :   1m 0.32s CPU   1m 6.30s WALL

 
   This run was terminated on:   8:44:24  18Jun2022            

=------------------------------------------------------------------------------=
   JOB DONE.
=------------------------------------------------------------------------------=
