
     Program PWSCF v.7.0 starts on 18Jun2022 at  8:40:27 

     This program is part of the open-source Quantum ESPRESSO suite
     for quantum simulation of materials; please cite
         "P. Giannozzi et al., J. Phys.:Condens. Matter 21 395502 (2009);
         "P. Giannozzi et al., J. Phys.:Condens. Matter 29 465901 (2017);
         "P. Giannozzi et al., J. Chem. Phys. 152 154105 (2020);
          URL http://www.quantum-espresso.org", 
     in publications or presentations arising from this work. More details at
     http://www.quantum-espresso.org/quote

     Parallel version (MPI), running on    64 processors

     MPI processes distributed on     1 nodes
     469562 MiB available memory on the printing compute node when the environment starts
 
     Reading input from ./inputs/0.03-scf.in
Warning: card &CELL ignored
Warning: card / ignored

     Current dimensions of program PWSCF are:
     Max number of different atomic species (ntypx) = 10
     Max number of k-points (npk) =  40000
     Max angular momentum in pseudopotentials (lmaxx) =  4
     file Nb.pbe-spn-rrkjus_psl.1.0.0.UPF: wavefunction(s)  4S 4P renormalized
     file Se.pbe-mt_fhi.UPF: wavefunction(s)  4f renormalized
     Message from routine setup:
     using ibrav=0 with symmetry is DISCOURAGED, use correct ibrav instead
 
     R & G space division:  proc/nbgrp/npool/nimage =      64
     Subspace diagonalization in iterative solution of the eigenvalue problem:
     a serial algorithm will be used

 
     Parallelization info
     --------------------
     sticks:   dense  smooth     PW     G-vecs:    dense   smooth      PW
     Min          37      37     10                 5897     5897     836
     Max          39      39     11                 5908     5908     855
     Sum        2395    2395    649               377787   377787   53897
 
     Using Slab Decomposition
 


     bravais-lattice index     =            0
     lattice parameter (alat)  =       6.5780  a.u.
     unit-cell volume          =     988.1118 (a.u.)^3
     number of atoms/cell      =            3
     number of atomic types    =            2
     number of electrons       =        25.00
     number of Kohn-Sham states=           17
     kinetic-energy cutoff     =     200.0000  Ry
     charge density cutoff     =     800.0000  Ry
     scf convergence threshold =      1.0E-12
     mixing beta               =       0.7000
     number of iterations used =            8  local-TF  mixing
     Exchange-correlation= PBE
                           (   1   4   3   4   0   0   0)

     celldm(1)=   6.577960  celldm(2)=   0.000000  celldm(3)=   0.000000
     celldm(4)=   0.000000  celldm(5)=   0.000000  celldm(6)=   0.000000

     crystal axes: (cart. coord. in units of alat)
               a(1) = (   1.000000   0.000000   0.000000 )  
               a(2) = (  -0.500000   0.866025   0.000000 )  
               a(3) = (   0.000000   0.000000   4.008683 )  

     reciprocal axes: (cart. coord. in units 2 pi/alat)
               b(1) = (  1.000000  0.577350  0.000000 )  
               b(2) = (  0.000000  1.154701  0.000000 )  
               b(3) = (  0.000000  0.000000  0.249458 )  


     PseudoPot. # 1 for Nb read from file:
     ./PP/Nb.pbe-spn-rrkjus_psl.1.0.0.UPF
     MD5 check sum: 6ee677a9f002bd3e3657f443f129faad
     Pseudo is Ultrasoft + core correction, Zval = 13.0
     Generated using &quot;atomic&quot; code by A. Dal Corso  v.6.2.2
     Using radial grid of 1227 points,  6 beta functions with: 
                l(1) =   0
                l(2) =   0
                l(3) =   1
                l(4) =   1
                l(5) =   2
                l(6) =   2
     Q(r) pseudized with 0 coefficients 


     PseudoPot. # 2 for Se read from file:
     ./PP/Se.pbe-mt_fhi.UPF
     MD5 check sum: 761aa2365a2a775fd78ad90d13f3567a
     Pseudo is Norm-conserving, Zval =  6.0
     Generated using FHI98PP, converted with fhi2upf.x v.5.0.2
     Using radial grid of  533 points,  3 beta functions with: 
                l(1) =   0
                l(2) =   1
                l(3) =   3

     atomic species   valence    mass     pseudopotential
        Nb            13.00    92.90000     Nb( 1.00)
        Se             6.00    78.96000     Se( 1.00)

     12 Sym. Ops. (no inversion) found



   Cartesian axes

     site n.     atom                  positions (alat units)
         1           Nb  tau(   1) = (   0.0000000   0.0000000   2.0043414  )
         2           Se  tau(   2) = (  -0.0000000   0.5773503   1.5195516  )
         3           Se  tau(   3) = (  -0.0000000   0.5773503   2.4891312  )

     number of k points=    91  Fermi-Dirac smearing, width (Ry)=  0.0300
                       cart. coord. in units 2pi/alat
        k(    1) = (   0.0000000   0.0000000   0.0000000), wk =   0.0022222
        k(    2) = (   0.0000000   0.0384900   0.0000000), wk =   0.0133333
        k(    3) = (   0.0000000   0.0769800   0.0000000), wk =   0.0133333
        k(    4) = (   0.0000000   0.1154701   0.0000000), wk =   0.0133333
        k(    5) = (   0.0000000   0.1539601   0.0000000), wk =   0.0133333
        k(    6) = (   0.0000000   0.1924501   0.0000000), wk =   0.0133333
        k(    7) = (   0.0000000   0.2309401   0.0000000), wk =   0.0133333
        k(    8) = (   0.0000000   0.2694301   0.0000000), wk =   0.0133333
        k(    9) = (   0.0000000   0.3079201   0.0000000), wk =   0.0133333
        k(   10) = (   0.0000000   0.3464102   0.0000000), wk =   0.0133333
        k(   11) = (   0.0000000   0.3849002   0.0000000), wk =   0.0133333
        k(   12) = (   0.0000000   0.4233902   0.0000000), wk =   0.0133333
        k(   13) = (   0.0000000   0.4618802   0.0000000), wk =   0.0133333
        k(   14) = (   0.0000000   0.5003702   0.0000000), wk =   0.0133333
        k(   15) = (   0.0000000   0.5388603   0.0000000), wk =   0.0133333
        k(   16) = (   0.0000000  -0.5773503   0.0000000), wk =   0.0066667
        k(   17) = (   0.0333333   0.0577350   0.0000000), wk =   0.0133333
        k(   18) = (   0.0333333   0.0962250   0.0000000), wk =   0.0266667
        k(   19) = (   0.0333333   0.1347151   0.0000000), wk =   0.0266667
        k(   20) = (   0.0333333   0.1732051   0.0000000), wk =   0.0266667
        k(   21) = (   0.0333333   0.2116951   0.0000000), wk =   0.0266667
        k(   22) = (   0.0333333   0.2501851   0.0000000), wk =   0.0266667
        k(   23) = (   0.0333333   0.2886751   0.0000000), wk =   0.0266667
        k(   24) = (   0.0333333   0.3271652   0.0000000), wk =   0.0266667
        k(   25) = (   0.0333333   0.3656552   0.0000000), wk =   0.0266667
        k(   26) = (   0.0333333   0.4041452   0.0000000), wk =   0.0266667
        k(   27) = (   0.0333333   0.4426352   0.0000000), wk =   0.0266667
        k(   28) = (   0.0333333   0.4811252   0.0000000), wk =   0.0266667
        k(   29) = (   0.0333333   0.5196152   0.0000000), wk =   0.0266667
        k(   30) = (   0.0333333   0.5581053   0.0000000), wk =   0.0266667
        k(   31) = (   0.0666667   0.1154701   0.0000000), wk =   0.0133333
        k(   32) = (   0.0666667   0.1539601   0.0000000), wk =   0.0266667
        k(   33) = (   0.0666667   0.1924501   0.0000000), wk =   0.0266667
        k(   34) = (   0.0666667   0.2309401   0.0000000), wk =   0.0266667
        k(   35) = (   0.0666667   0.2694301   0.0000000), wk =   0.0266667
        k(   36) = (   0.0666667   0.3079201   0.0000000), wk =   0.0266667
        k(   37) = (   0.0666667   0.3464102   0.0000000), wk =   0.0266667
        k(   38) = (   0.0666667   0.3849002   0.0000000), wk =   0.0266667
        k(   39) = (   0.0666667   0.4233902   0.0000000), wk =   0.0266667
        k(   40) = (   0.0666667   0.4618802   0.0000000), wk =   0.0266667
        k(   41) = (   0.0666667   0.5003702   0.0000000), wk =   0.0266667
        k(   42) = (   0.0666667   0.5388603   0.0000000), wk =   0.0266667
        k(   43) = (   0.0666667   0.5773503   0.0000000), wk =   0.0133333
        k(   44) = (   0.1000000   0.1732051   0.0000000), wk =   0.0133333
        k(   45) = (   0.1000000   0.2116951   0.0000000), wk =   0.0266667
        k(   46) = (   0.1000000   0.2501851   0.0000000), wk =   0.0266667
        k(   47) = (   0.1000000   0.2886751   0.0000000), wk =   0.0266667
        k(   48) = (   0.1000000   0.3271652   0.0000000), wk =   0.0266667
        k(   49) = (   0.1000000   0.3656552   0.0000000), wk =   0.0266667
        k(   50) = (   0.1000000   0.4041452   0.0000000), wk =   0.0266667
        k(   51) = (   0.1000000   0.4426352   0.0000000), wk =   0.0266667
        k(   52) = (   0.1000000   0.4811252   0.0000000), wk =   0.0266667
        k(   53) = (   0.1000000   0.5196152   0.0000000), wk =   0.0266667
        k(   54) = (   0.1000000   0.5581053   0.0000000), wk =   0.0266667
        k(   55) = (   0.1333333   0.2309401   0.0000000), wk =   0.0133333
        k(   56) = (   0.1333333   0.2694301   0.0000000), wk =   0.0266667
        k(   57) = (   0.1333333   0.3079201   0.0000000), wk =   0.0266667
        k(   58) = (   0.1333333   0.3464102   0.0000000), wk =   0.0266667
        k(   59) = (   0.1333333   0.3849002   0.0000000), wk =   0.0266667
        k(   60) = (   0.1333333   0.4233902   0.0000000), wk =   0.0266667
        k(   61) = (   0.1333333   0.4618802   0.0000000), wk =   0.0266667
        k(   62) = (   0.1333333   0.5003702   0.0000000), wk =   0.0266667
        k(   63) = (   0.1333333   0.5388603   0.0000000), wk =   0.0266667
        k(   64) = (   0.1333333   0.5773503   0.0000000), wk =   0.0133333
        k(   65) = (   0.1666667   0.2886751   0.0000000), wk =   0.0133333
        k(   66) = (   0.1666667   0.3271652   0.0000000), wk =   0.0266667
        k(   67) = (   0.1666667   0.3656552   0.0000000), wk =   0.0266667
        k(   68) = (   0.1666667   0.4041452   0.0000000), wk =   0.0266667
        k(   69) = (   0.1666667   0.4426352   0.0000000), wk =   0.0266667
        k(   70) = (   0.1666667   0.4811252   0.0000000), wk =   0.0266667
        k(   71) = (   0.1666667   0.5196152   0.0000000), wk =   0.0266667
        k(   72) = (   0.1666667   0.5581053   0.0000000), wk =   0.0266667
        k(   73) = (   0.2000000   0.3464102   0.0000000), wk =   0.0133333
        k(   74) = (   0.2000000   0.3849002   0.0000000), wk =   0.0266667
        k(   75) = (   0.2000000   0.4233902   0.0000000), wk =   0.0266667
        k(   76) = (   0.2000000   0.4618802   0.0000000), wk =   0.0266667
        k(   77) = (   0.2000000   0.5003702   0.0000000), wk =   0.0266667
        k(   78) = (   0.2000000   0.5388603   0.0000000), wk =   0.0266667
        k(   79) = (   0.2000000   0.5773503   0.0000000), wk =   0.0133333
        k(   80) = (   0.2333333   0.4041452   0.0000000), wk =   0.0133333
        k(   81) = (   0.2333333   0.4426352   0.0000000), wk =   0.0266667
        k(   82) = (   0.2333333   0.4811252   0.0000000), wk =   0.0266667
        k(   83) = (   0.2333333   0.5196152   0.0000000), wk =   0.0266667
        k(   84) = (   0.2333333   0.5581053   0.0000000), wk =   0.0266667
        k(   85) = (   0.2666667   0.4618802   0.0000000), wk =   0.0133333
        k(   86) = (   0.2666667   0.5003702   0.0000000), wk =   0.0266667
        k(   87) = (   0.2666667   0.5388603   0.0000000), wk =   0.0266667
        k(   88) = (   0.2666667   0.5773503   0.0000000), wk =   0.0133333
        k(   89) = (   0.3000000   0.5196152   0.0000000), wk =   0.0133333
        k(   90) = (   0.3000000   0.5581053   0.0000000), wk =   0.0266667
        k(   91) = (   0.3333333   0.5773503   0.0000000), wk =   0.0044444

     Dense  grid:   377787 G-vectors     FFT dimensions: (  60,  60, 240)

     Estimated max dynamical RAM per process >      48.28 MB

     Estimated total dynamical RAM >       3.02 GB

     Initial potential from superposition of free atoms

     starting charge      24.9985, renormalised to      25.0000

     negative rho (up, down):  2.493E-03 0.000E+00
     Starting wfcs are   45 randomized atomic wfcs

     total cpu time spent up to now is        3.3 secs

     Self-consistent Calculation

     iteration #  1     ecut=   200.00 Ry     beta= 0.70
     Davidson diagonalization with overlap
     ethr =  1.00E-02,  avg # of iterations =  1.9

     Threshold (ethr) on eigenvalues was too large:
     Diagonalizing with lowered threshold

     Davidson diagonalization with overlap
     ethr =  3.09E-04,  avg # of iterations =  3.6

     negative rho (up, down):  2.087E-06 0.000E+00

     total cpu time spent up to now is        9.4 secs

     total energy              =    -156.05805277 Ry
     estimated scf accuracy    <       0.09035063 Ry

     iteration #  2     ecut=   200.00 Ry     beta= 0.70
     Davidson diagonalization with overlap
     ethr =  3.61E-04,  avg # of iterations =  1.0

     total cpu time spent up to now is       11.9 secs

     total energy              =    -156.04588236 Ry
     estimated scf accuracy    <       0.04138573 Ry

     iteration #  3     ecut=   200.00 Ry     beta= 0.70
     Davidson diagonalization with overlap
     ethr =  1.66E-04,  avg # of iterations =  2.1

     total cpu time spent up to now is       14.8 secs

     total energy              =    -156.05442080 Ry
     estimated scf accuracy    <       0.00333374 Ry

     iteration #  4     ecut=   200.00 Ry     beta= 0.70
     Davidson diagonalization with overlap
     ethr =  1.33E-05,  avg # of iterations =  3.8

     total cpu time spent up to now is       18.1 secs

     total energy              =    -156.05429849 Ry
     estimated scf accuracy    <       0.00193913 Ry

     iteration #  5     ecut=   200.00 Ry     beta= 0.70
     Davidson diagonalization with overlap
     ethr =  7.76E-06,  avg # of iterations =  2.0

     total cpu time spent up to now is       21.1 secs

     total energy              =    -156.05430298 Ry
     estimated scf accuracy    <       0.00131743 Ry

     iteration #  6     ecut=   200.00 Ry     beta= 0.70
     Davidson diagonalization with overlap
     ethr =  5.27E-06,  avg # of iterations =  1.8

     total cpu time spent up to now is       23.8 secs

     total energy              =    -156.05441559 Ry
     estimated scf accuracy    <       0.00040484 Ry

     iteration #  7     ecut=   200.00 Ry     beta= 0.70
     Davidson diagonalization with overlap
     ethr =  1.62E-06,  avg # of iterations =  4.1

     total cpu time spent up to now is       27.6 secs

     total energy              =    -156.05455997 Ry
     estimated scf accuracy    <       0.00016723 Ry

     iteration #  8     ecut=   200.00 Ry     beta= 0.70
     Davidson diagonalization with overlap
     ethr =  6.69E-07,  avg # of iterations =  1.6

     total cpu time spent up to now is       30.3 secs

     total energy              =    -156.05455402 Ry
     estimated scf accuracy    <       0.00004340 Ry

     iteration #  9     ecut=   200.00 Ry     beta= 0.70
     Davidson diagonalization with overlap
     ethr =  1.74E-07,  avg # of iterations =  3.8

     negative rho (up, down):  3.258E-07 0.000E+00

     total cpu time spent up to now is       33.8 secs

     total energy              =    -156.05456842 Ry
     estimated scf accuracy    <       0.00000305 Ry

     iteration # 10     ecut=   200.00 Ry     beta= 0.70
     Davidson diagonalization with overlap
     ethr =  1.22E-08,  avg # of iterations =  3.6

     negative rho (up, down):  4.198E-07 0.000E+00

     total cpu time spent up to now is       37.2 secs

     total energy              =    -156.05456877 Ry
     estimated scf accuracy    <       0.00000071 Ry

     iteration # 11     ecut=   200.00 Ry     beta= 0.70
     Davidson diagonalization with overlap
     ethr =  2.86E-09,  avg # of iterations =  2.7

     negative rho (up, down):  6.742E-07 0.000E+00

     total cpu time spent up to now is       40.4 secs

     total energy              =    -156.05456892 Ry
     estimated scf accuracy    <       0.00000002 Ry

     iteration # 12     ecut=   200.00 Ry     beta= 0.70
     Davidson diagonalization with overlap
     ethr =  7.01E-11,  avg # of iterations =  4.4

     negative rho (up, down):  5.789E-07 0.000E+00

     total cpu time spent up to now is       44.6 secs

     total energy              =    -156.05456894 Ry
     estimated scf accuracy    <          1.4E-09 Ry

     iteration # 13     ecut=   200.00 Ry     beta= 0.70
     Davidson diagonalization with overlap
     ethr =  5.64E-12,  avg # of iterations =  2.2

     negative rho (up, down):  5.952E-07 0.000E+00

     total cpu time spent up to now is       47.6 secs

     total energy              =    -156.05456894 Ry
     estimated scf accuracy    <          4.7E-10 Ry

     iteration # 14     ecut=   200.00 Ry     beta= 0.70
     Davidson diagonalization with overlap
     ethr =  1.87E-12,  avg # of iterations =  3.9

     negative rho (up, down):  5.953E-07 0.000E+00

     total cpu time spent up to now is       51.2 secs

     total energy              =    -156.05456894 Ry
     estimated scf accuracy    <          1.2E-10 Ry

     iteration # 15     ecut=   200.00 Ry     beta= 0.70
     Davidson diagonalization with overlap
     ethr =  4.98E-13,  avg # of iterations =  2.0

     negative rho (up, down):  5.964E-07 0.000E+00

     total cpu time spent up to now is       54.3 secs

     total energy              =    -156.05456894 Ry
     estimated scf accuracy    <          8.2E-12 Ry

     iteration # 16     ecut=   200.00 Ry     beta= 0.70
     Davidson diagonalization with overlap
     ethr =  1.00E-13,  avg # of iterations =  1.4

     negative rho (up, down):  5.970E-07 0.000E+00

     total cpu time spent up to now is       56.9 secs

     total energy              =    -156.05456894 Ry
     estimated scf accuracy    <          2.0E-12 Ry

     iteration # 17     ecut=   200.00 Ry     beta= 0.70
     Davidson diagonalization with overlap
     ethr =  1.00E-13,  avg # of iterations =  1.0

     negative rho (up, down):  5.972E-07 0.000E+00

     total cpu time spent up to now is       59.4 secs

     End of self-consistent calculation

          k = 0.0000 0.0000 0.0000 ( 47201 PWs)   bands (ev):

   -53.8835 -29.9682 -29.8585 -29.8585 -12.4490 -11.5151  -3.7074  -0.6932
    -0.6932  -0.3155   0.2480   0.2480   1.6876   4.0100   4.0100   4.1758
     4.1758

          k = 0.0000 0.0385 0.0000 ( 47205 PWs)   bands (ev):

   -53.8833 -29.9676 -29.8612 -29.8591 -12.4367 -11.5094  -3.6907  -0.7372
    -0.6810  -0.3666   0.2230   0.2710   1.6794   3.9770   4.0372   4.1202
     4.1594

          k = 0.0000 0.0770 0.0000 ( 47193 PWs)   bands (ev):

   -53.8826 -29.9660 -29.8690 -29.8609 -12.4004 -11.4925  -3.6414  -0.8634
    -0.6449  -0.4953   0.1512   0.3129   1.6526   3.8966   3.9837   4.1125
     4.1152

          k = 0.0000 0.1155 0.0000 ( 47201 PWs)   bands (ev):

   -53.8816 -29.9633 -29.8816 -29.8637 -12.3408 -11.4650  -3.5617  -1.0574
    -0.6682  -0.5864   0.0415   0.3342   1.6010   3.8103   3.8205   4.0412
     4.2338

          k = 0.0000 0.1540 0.0000 ( 47195 PWs)   bands (ev):

   -53.8802 -29.9597 -29.8984 -29.8675 -12.2597 -11.4274  -3.4554  -1.3001
    -0.8687  -0.5080  -0.0949   0.3152   1.5175   3.6724   3.7590   3.9540
     4.3796

          k = 0.0000 0.1925 0.0000 ( 47173 PWs)   bands (ev):

   -53.8786 -29.9553 -29.9186 -29.8721 -12.1594 -11.3810  -3.3294  -1.5716
    -1.0905  -0.4132  -0.2470   0.2546   1.3995   3.5654   3.7661   3.8605
     4.5390

          k = 0.0000 0.2309 0.0000 ( 47166 PWs)   bands (ev):

   -53.8767 -29.9504 -29.9414 -29.8773 -12.0428 -11.3271  -3.1945  -1.8520
    -1.3295  -0.4051  -0.3068   0.1644   1.2538   3.5105   3.7703   3.8347
     4.7003

          k = 0.0000 0.2694 0.0000 ( 47184 PWs)   bands (ev):

   -53.8747 -29.9657 -29.9451 -29.8829 -11.9138 -11.2676  -3.0714  -2.1168
    -1.5808  -0.5613  -0.1940   0.0619   1.0974   3.5056   3.6917   3.9539
     4.8540

          k = 0.0000 0.3079 0.0000 ( 47158 PWs)   bands (ev):

   -53.8726 -29.9904 -29.9397 -29.8886 -11.7768 -11.2047  -3.0045  -2.3216
    -1.8366  -0.7096  -0.0809  -0.0382   0.9530   3.5413   3.6311   4.1068
     4.9933

          k = 0.0000 0.3464 0.0000 ( 47136 PWs)   bands (ev):

   -53.8706 -30.0144 -29.9344 -29.8941 -11.6372 -11.1409  -3.0629  -2.4005
    -2.0872  -0.8454  -0.1266   0.0264   0.8418   3.5925   3.6059   4.2755
     5.1142

          k = 0.0000 0.3849 0.0000 ( 47196 PWs)   bands (ev):

   -53.8687 -30.0367 -29.9295 -29.8993 -11.5012 -11.0793  -3.2286  -2.3739
    -2.3216  -0.9650  -0.1993   0.1225   0.7785   3.5768   3.6883   4.4433
     5.2148

          k = 0.0000 0.4234 0.0000 ( 47184 PWs)   bands (ev):

   -53.8671 -30.0564 -29.9251 -29.9038 -11.3756 -11.0228  -3.4193  -2.5294
    -2.3229  -1.0660  -0.2558   0.2033   0.7670   3.5811   3.7790   4.5957
     5.2948

          k = 0.0000 0.4619 0.0000 ( 47206 PWs)   bands (ev):

   -53.8657 -30.0726 -29.9214 -29.9076 -11.2676 -10.9746  -3.5911  -2.7012
    -2.2828  -1.1463  -0.2972   0.2663   0.7972   3.5991   3.8688   4.7215
     5.3550

          k = 0.0000 0.5004 0.0000 ( 47232 PWs)   bands (ev):

   -53.8647 -30.0847 -29.9187 -29.9104 -11.1842 -10.9377  -3.7246  -2.8296
    -2.2596  -1.2046  -0.3250   0.3109   0.8479   3.6220   3.9480   4.8135
     5.3967

          k = 0.0000 0.5389 0.0000 ( 47210 PWs)   bands (ev):

   -53.8640 -30.0922 -29.9171 -29.9122 -11.1314 -10.9145  -3.8088  -2.9089
    -2.2491  -1.2400  -0.3410   0.3373   0.8928   3.6404   4.0043   4.8689
     5.4211

          k = 0.0000-0.5774 0.0000 ( 47252 PWs)   bands (ev):

   -53.8638 -30.0947 -29.9165 -29.9128 -11.1133 -10.9066  -3.8376  -2.9358
    -2.2462  -1.2518  -0.3462   0.3460   0.9105   3.6475   4.0250   4.8872
     5.4292

          k = 0.0333 0.0577 0.0000 ( 47187 PWs)   bands (ev):

   -53.8829 -29.9665 -29.8664 -29.8603 -12.4124 -11.4981  -3.6577  -0.8220
    -0.6571  -0.4549   0.1701   0.3065   1.6619   3.9191   4.0255   4.0912
     4.1272

          k = 0.0333 0.0962 0.0000 ( 47188 PWs)   bands (ev):

   -53.8820 -29.9643 -29.8765 -29.8627 -12.3645 -11.4759  -3.5932  -0.9812
    -0.6106  -0.6003   0.0679   0.3448   1.6227   3.8331   3.8794   4.0667
     4.1925

          k = 0.0333 0.1347 0.0000 ( 47188 PWs)   bands (ev):

   -53.8808 -29.9612 -29.8911 -29.8661 -12.2941 -11.4433  -3.5000  -1.1980
    -0.7798  -0.5436  -0.0699   0.3547   1.5551   3.7274   3.7615   3.9866
     4.3284

          k = 0.0333 0.1732 0.0000 ( 47178 PWs)   bands (ev):

   -53.8793 -29.9572 -29.9095 -29.8704 -12.2034 -11.4013  -3.3834  -1.4530
    -0.9841  -0.4594  -0.2283   0.3235   1.4541   3.6017   3.7368   3.8970
     4.4843

          k = 0.0333 0.2117 0.0000 ( 47179 PWs)   bands (ev):

   -53.8775 -29.9526 -29.9309 -29.8755 -12.0949 -11.3511  -3.2517  -1.7269
    -1.2097  -0.3936  -0.3625   0.2545   1.3219   3.5199   3.7729   3.8090
     4.6471

          k = 0.0333 0.2502 0.0000 ( 47157 PWs)   bands (ev):

   -53.8756 -29.9543 -29.9475 -29.8810 -11.9720 -11.2944  -3.1198  -1.9987
    -1.4528  -0.5544  -0.2584   0.1605   1.1713   3.4848   3.7332   3.8660
     4.8058

          k = 0.0333 0.2887 0.0000 ( 47165 PWs)   bands (ev):

   -53.8735 -29.9786 -29.9421 -29.8868 -11.8389 -11.2331  -3.0177  -2.2365
    -1.7071  -0.7037  -0.1539   0.0571   1.0232   3.4873   3.6805   4.0022
     4.9519

          k = 0.0333 0.3272 0.0000 ( 47165 PWs)   bands (ev):

   -53.8715 -30.0028 -29.9368 -29.8925 -11.7004 -11.1696  -3.0082  -2.3796
    -1.9625  -0.8378  -0.0557  -0.0429   0.9009   3.5091   3.6637   4.1645
     5.0797

          k = 0.0333 0.3657 0.0000 ( 47180 PWs)   bands (ev):

   -53.8696 -30.0258 -29.9316 -29.8980 -11.5624 -11.1067  -3.1312  -2.3914
    -2.2076  -0.9551  -0.1315   0.0303   0.8233   3.5319   3.6921   4.3360
     5.1854

          k = 0.0333 0.4041 0.0000 ( 47186 PWs)   bands (ev):

   -53.8678 -30.0467 -29.9270 -29.9030 -11.4313 -11.0475  -3.3161  -2.4312
    -2.3438  -1.0548  -0.2049   0.1014   0.7983   3.5547   3.7551   4.5019
     5.2673

          k = 0.0333 0.4426 0.0000 ( 47205 PWs)   bands (ev):

   -53.8663 -30.0646 -29.9230 -29.9073 -11.3141 -10.9949  -3.4988  -2.6230
    -2.2961  -1.1360  -0.2619   0.1585   0.8196   3.5824   3.8336   4.6498
     5.3251

          k = 0.0333 0.4811 0.0000 ( 47205 PWs)   bands (ev):

   -53.8651 -30.0786 -29.9198 -29.9107 -11.2181 -10.9522  -3.6514  -2.7746
    -2.2649  -1.1979  -0.3031   0.2025   0.8689   3.6115   3.9138   4.7699
     5.3610

          k = 0.0333 0.5196 0.0000 ( 47238 PWs)   bands (ev):

   -53.8642 -30.0883 -29.9176 -29.9130 -11.1497 -10.9220  -3.7600  -2.8795
    -2.2490  -1.2396  -0.3296   0.2331   0.9221   3.6351   3.9822   4.8548
     5.3794

          k = 0.0333 0.5581 0.0000 ( 47244 PWs)   bands (ev):

   -53.8638 -30.0933 -29.9165 -29.9142 -11.1141 -10.9064  -3.8163  -2.9330
    -2.2431  -1.2607  -0.3426   0.2487   0.9560   3.6480   4.0229   4.8990
     5.3862

          k = 0.0667 0.1155 0.0000 ( 47207 PWs)   bands (ev):

   -53.8810 -29.9617 -29.8886 -29.8657 -12.3057 -11.4487  -3.5150  -1.1615
    -0.7446  -0.5571  -0.0774   0.3799   1.5675   3.7492   3.7580   3.9958
     4.3156

          k = 0.0667 0.1540 0.0000 ( 47181 PWs)   bands (ev):

   -53.8797 -29.9582 -29.9046 -29.8699 -12.2257 -11.4116  -3.4109  -1.3875
    -0.9153  -0.4875  -0.2585   0.3886   1.4821   3.6241   3.7082   3.9126
     4.4674

          k = 0.0667 0.1925 0.0000 ( 47186 PWs)   bands (ev):

   -53.8780 -29.9539 -29.9239 -29.8749 -12.1268 -11.3658  -3.2874  -1.6410
    -1.1105  -0.4505  -0.4066   0.3590   1.3662   3.5251   3.7085   3.8316
     4.6318

          k = 0.0667 0.2309 0.0000 ( 47169 PWs)   bands (ev):

   -53.8762 -29.9491 -29.9455 -29.8805 -12.0119 -11.3126  -3.1552  -1.9030
    -1.3318  -0.6318  -0.3207   0.2930   1.2289   3.4607   3.7661   3.7664
     4.7954

          k = 0.0667 0.2694 0.0000 ( 47170 PWs)   bands (ev):

   -53.8742 -29.9686 -29.9439 -29.8866 -11.8847 -11.2539  -3.0352  -2.1492
    -1.5763  -0.7892  -0.2378   0.2012   1.0884   3.4296   3.7264   3.8752
     4.9477

          k = 0.0667 0.3079 0.0000 ( 47189 PWs)   bands (ev):

   -53.8722 -29.9921 -29.9386 -29.8928 -11.7498 -11.1919  -2.9736  -2.3340
    -1.8333  -0.9197  -0.1660   0.0970   0.9680   3.4267   3.7168   4.0211
     5.0808

          k = 0.0667 0.3464 0.0000 ( 47173 PWs)   bands (ev):

   -53.8703 -30.0150 -29.9335 -29.8988 -11.6125 -11.1290  -3.0374  -2.3937
    -2.0885  -1.0258  -0.1110  -0.0078   0.8887   3.4480   3.7343   4.1885
     5.1888

          k = 0.0667 0.3849 0.0000 ( 47198 PWs)   bands (ev):

   -53.8684 -30.0363 -29.9286 -29.9045 -11.4788 -11.0681  -3.2001  -2.3579
    -2.3279  -1.1110  -0.1047  -0.0723   0.8606   3.4897   3.7718   4.3628
     5.2675

          k = 0.0667 0.4234 0.0000 ( 47205 PWs)   bands (ev):

   -53.8668 -30.0550 -29.9243 -29.9094 -11.3555 -11.0124  -3.3830  -2.5397
    -2.3046  -1.1783  -0.1879  -0.0429   0.8790   3.5434   3.8238   4.5319
     5.3146

          k = 0.0667 0.4619 0.0000 ( 47195 PWs)   bands (ev):

   -53.8654 -30.0705 -29.9208 -29.9136 -11.2496 -10.9649  -3.5469  -2.7144
    -2.2650  -1.2293  -0.2543  -0.0172   0.9287   3.5940   3.8884   4.6863
     5.3302

          k = 0.0667 0.5004 0.0000 ( 47209 PWs)   bands (ev):

   -53.8644 -30.0820 -29.9181 -29.9166 -11.1679 -10.9285  -3.6739  -2.8446
    -2.2431  -1.2653  -0.3022   0.0050   0.9891   3.6285   3.9600   4.8173
     5.3191

          k = 0.0667 0.5389 0.0000 ( 47234 PWs)   bands (ev):

   -53.8638 -30.0891 -29.9185 -29.9165 -11.1162 -10.9057  -3.7540  -2.9250
    -2.2338  -1.2867  -0.3310   0.0203   1.0380   3.6451   4.0198   4.9127
     5.2941

          k = 0.0667 0.5774 0.0000 ( 47242 PWs)   bands (ev):

   -53.8636 -30.0915 -29.9192 -29.9159 -11.0985 -10.8978  -3.7814  -2.9521
    -2.2314  -1.2938  -0.3406   0.0257   1.0567   3.6496   4.0435   4.9502
     5.2797

          k = 0.1000 0.1732 0.0000 ( 47171 PWs)   bands (ev):

   -53.8782 -29.9544 -29.9213 -29.8748 -12.1375 -11.3708  -3.2994  -1.6101
    -1.0685  -0.4833  -0.4235   0.4017   1.3816   3.5271   3.6812   3.8383
     4.6301

          k = 0.1000 0.2117 0.0000 ( 47183 PWs)   bands (ev):

   -53.8765 -29.9499 -29.9407 -29.8807 -12.0321 -11.3219  -3.1737  -1.8488
    -1.2461  -0.7066  -0.3588   0.3786   1.2602   3.4467   3.7007   3.7817
     4.7980

          k = 0.1000 0.2502 0.0000 ( 47186 PWs)   bands (ev):

   -53.8747 -29.9618 -29.9450 -29.8872 -11.9128 -11.2667  -3.0486  -2.0839
    -1.4600  -0.8954  -0.3026   0.3188   1.1330   3.3901   3.7529   3.7720
     4.9570

          k = 0.1000 0.2887 0.0000 ( 47188 PWs)   bands (ev):

   -53.8727 -29.9837 -29.9399 -29.8940 -11.7837 -11.2071  -2.9564  -2.2821
    -1.7075  -1.0364  -0.2643   0.2306   1.0214   3.3640   3.7515   3.8885
     5.0968

          k = 0.1000 0.3272 0.0000 ( 47188 PWs)   bands (ev):

   -53.8708 -30.0055 -29.9348 -29.9008 -11.6496 -11.1453  -2.9617  -2.3817
    -1.9686  -1.1374  -0.2492   0.1257   0.9457   3.3732   3.7699   4.0378
     5.2100

          k = 0.1000 0.3657 0.0000 ( 47198 PWs)   bands (ev):

   -53.8689 -30.0263 -29.9299 -29.9074 -11.5163 -11.0842  -3.0862  -2.3652
    -2.2224  -1.2092  -0.2535   0.0158   0.9167   3.4174   3.7993   4.2059
     5.2908

          k = 0.1000 0.4041 0.0000 ( 47198 PWs)   bands (ev):

   -53.8672 -30.0451 -29.9255 -29.9133 -11.3898 -11.0265  -3.2567  -2.4535
    -2.3086  -1.2596  -0.2649  -0.0895   0.9320   3.4876   3.8343   4.3805
     5.3356

          k = 0.1000 0.4426 0.0000 ( 47191 PWs)   bands (ev):

   -53.8657 -30.0612 -29.9216 -29.9185 -11.2771 -10.9755  -3.4214  -2.6506
    -2.2602  -1.2937  -0.2721  -0.1827   0.9805   3.5625   3.8794   4.5518
     5.3427

          k = 0.1000 0.4811 0.0000 ( 47199 PWs)   bands (ev):

   -53.8646 -30.0738 -29.9225 -29.9186 -11.1848 -10.9340  -3.5582  -2.8056
    -2.2314  -1.3153  -0.2720  -0.2579   1.0458   3.6130   3.9452   4.7124
     5.3142

          k = 0.1000 0.5196 0.0000 ( 47213 PWs)   bands (ev):

   -53.8638 -30.0826 -29.9253 -29.9165 -11.1192 -10.9046  -3.6554  -2.9124
    -2.2187  -1.3275  -0.3107  -0.2678   1.1081   3.6303   4.0223   4.8549
     5.2573

          k = 0.1000 0.5581 0.0000 ( 47238 PWs)   bands (ev):

   -53.8634 -30.0871 -29.9267 -29.9154 -11.0851 -10.8894  -3.7057  -2.9668
    -2.2147  -1.3330  -0.3379  -0.2642   1.1463   3.6313   4.0753   4.9606
     5.1932

          k = 0.1333 0.2309 0.0000 ( 47187 PWs)   bands (ev):

   -53.8748 -29.9593 -29.9454 -29.8875 -11.9222 -11.2710  -3.0534  -2.0595
    -1.4057  -0.9486  -0.3270   0.3633   1.1488   3.3761   3.7323   3.7614
     4.9621

          k = 0.1333 0.2694 0.0000 ( 47178 PWs)   bands (ev):

   -53.8730 -29.9790 -29.9406 -29.8951 -11.8009 -11.2148  -2.9499  -2.2478
    -1.6137  -1.1311  -0.3218   0.3101   1.0504   3.3301   3.7681   3.8092
     5.1094

          k = 0.1333 0.3079 0.0000 ( 47173 PWs)   bands (ev):

   -53.8711 -29.9988 -29.9357 -29.9029 -11.6725 -11.1553  -2.9143  -2.3642
    -1.8645  -1.2455  -0.3488   0.2255   0.9828   3.3231   3.7916   3.9262
     5.2305

          k = 0.1333 0.3464 0.0000 ( 47174 PWs)   bands (ev):

   -53.8692 -30.0181 -29.9308 -29.9107 -11.5421 -11.0951  -2.9933  -2.3666
    -2.1253  -1.3141  -0.4018   0.1206   0.9558   3.3602   3.8210   4.0721
     5.3189

          k = 0.1333 0.3849 0.0000 ( 47185 PWs)   bands (ev):

   -53.8675 -30.0360 -29.9263 -29.9179 -11.4155 -11.0369  -3.1383  -2.3713
    -2.3089  -1.3537  -0.4641   0.0070   0.9691   3.4345   3.8497   4.2343
     5.3708

          k = 0.1333 0.4234 0.0000 ( 47193 PWs)   bands (ev):

   -53.8660 -30.0517 -29.9244 -29.9223 -11.2991 -10.9836  -3.2909  -2.5878
    -2.2514  -1.3733  -0.5185  -0.1044   1.0156   3.5238   3.8824   4.4013
     5.3850

          k = 0.1333 0.4619 0.0000 ( 47201 PWs)   bands (ev):

   -53.8647 -30.0647 -29.9298 -29.9190 -11.1994 -10.9382  -3.4255  -2.7652
    -2.2146  -1.3794  -0.5556  -0.2039   1.0840   3.5877   3.9408   4.5635
     5.3636

          k = 0.1333 0.5004 0.0000 ( 47209 PWs)   bands (ev):

   -53.8638 -30.0743 -29.9338 -29.9165 -11.1228 -10.9034  -3.5293  -2.8968
    -2.1980  -1.3776  -0.5758  -0.2830   1.1578   3.6018   4.0326   4.7116
     5.3136

          k = 0.1333 0.5389 0.0000 ( 47226 PWs)   bands (ev):

   -53.8632 -30.0803 -29.9363 -29.9150 -11.0744 -10.8815  -3.5947  -2.9776
    -2.1935  -1.3735  -0.5845  -0.3342   1.2158   3.5896   4.1183   4.8305
     5.2517

          k = 0.1333 0.5774 0.0000 ( 47216 PWs)   bands (ev):

   -53.8630 -30.0823 -29.9372 -29.9145 -11.0578 -10.8741  -3.6170  -3.0049
    -2.1930  -1.3715  -0.5868  -0.3520   1.2379   3.5817   4.1529   4.8826
     5.2182

          k = 0.1667 0.2887 0.0000 ( 47175 PWs)   bands (ev):

   -53.8712 -29.9964 -29.9359 -29.9038 -11.6802 -11.1587  -2.8985  -2.3558
    -1.8180  -1.2948  -0.3852   0.2624   0.9955   3.3055   3.7987   3.8850
     5.2385

          k = 0.1667 0.3272 0.0000 ( 47159 PWs)   bands (ev):

   -53.8694 -30.0134 -29.9313 -29.9129 -11.5552 -11.1007  -2.9405  -2.3653
    -2.0608  -1.3859  -0.4860   0.1811   0.9757   3.3291   3.8324   3.9954
     5.3366

          k = 0.1667 0.3657 0.0000 ( 47161 PWs)   bands (ev):

   -53.8677 -30.0294 -29.9268 -29.9218 -11.4314 -11.0432  -3.0514  -2.3074
    -2.3073  -1.4305  -0.6047   0.0768   0.9905   3.3979   3.8611   4.1301
     5.4003

          k = 0.1667 0.4041 0.0000 ( 47185 PWs)   bands (ev):

   -53.8662 -30.0437 -29.9301 -29.9228 -11.3144 -10.9891  -3.1785  -2.5344
    -2.2406  -1.4460  -0.7186  -0.0383   1.0363   3.4904   3.8889   4.2768
     5.4293

          k = 0.1667 0.4426 0.0000 ( 47193 PWs)   bands (ev):

   -53.8648 -30.0558 -29.9373 -29.9193 -11.2107 -10.9412  -3.2959  -2.7283
    -2.1936  -1.4425  -0.8099  -0.1520   1.1067   3.5599   3.9432   4.4234
     5.4266

          k = 0.1667 0.4811 0.0000 ( 47189 PWs)   bands (ev):

   -53.8638 -30.0653 -29.9430 -29.9165 -11.1261 -10.9022  -3.3915  -2.8805
    -2.1717  -1.4282  -0.8718  -0.2527   1.1900   3.5671   4.0467   4.5583
     5.3991

          k = 0.1667 0.5196 0.0000 ( 47219 PWs)   bands (ev):

   -53.8631 -30.0719 -29.9471 -29.9146 -11.0662 -10.8747  -3.4588  -2.9852
    -2.1676  -1.4113  -0.9069  -0.3289   1.2671   3.5352   4.1633   4.6678
     5.3597

          k = 0.1667 0.5581 0.0000 ( 47237 PWs)   bands (ev):

   -53.8627 -30.0752 -29.9491 -29.9136 -11.0351 -10.8605  -3.4935  -3.0385
    -2.1694  -1.4000  -0.9220  -0.3704   1.3143   3.5064   4.2389   4.7326
     5.3293

          k = 0.2000 0.3464 0.0000 ( 47113 PWs)   bands (ev):

   -53.8678 -30.0269 -29.9270 -29.9233 -11.4367 -11.0453  -3.0190  -2.3063
    -2.2824  -1.4608  -0.6559   0.1023   0.9974   3.3850   3.8652   4.0925
     5.4114

          k = 0.2000 0.3849 0.0000 ( 47147 PWs)   bands (ev):

   -53.8663 -30.0389 -29.9336 -29.9230 -11.3223 -10.9919  -3.1118  -2.5027
    -2.2324  -1.4898  -0.8334  -0.0005   1.0456   3.4715   3.8934   4.2073
     5.4561

          k = 0.2000 0.4234 0.0000 ( 47183 PWs)   bands (ev):

   -53.8649 -30.0491 -29.9431 -29.9195 -11.2178 -10.9430  -3.1976  -2.7017
    -2.1729  -1.4888  -0.9940  -0.1146   1.1182   3.5389   3.9469   4.3272
     5.4746

          k = 0.2000 0.4619 0.0000 ( 47203 PWs)   bands (ev):

   -53.8638 -30.0572 -29.9513 -29.9165 -11.1287 -10.9013  -3.2672  -2.8668
    -2.1412  -1.4695  -1.1193  -0.2266   1.2089   3.5368   4.0592   4.4394
     5.4730

          k = 0.2000 0.5004 0.0000 ( 47205 PWs)   bands (ev):

   -53.8630 -30.0631 -29.9576 -29.9143 -11.0606 -10.8695  -3.3175  -2.9900
    -2.1360  -1.4424  -1.2015  -0.3227   1.3028   3.4828   4.2009   4.5322
     5.4598

          k = 0.2000 0.5389 0.0000 ( 47228 PWs)   bands (ev):

   -53.8624 -30.0666 -29.9616 -29.9130 -11.0177 -10.8495  -3.3476  -3.0659
    -2.1437  -1.4190  -1.2448  -0.3888   1.3765   3.4248   4.3161   4.5943
     5.4452

          k = 0.2000 0.5774 0.0000 ( 47233 PWs)   bands (ev):

   -53.8623 -30.0678 -29.9629 -29.9125 -11.0031 -10.8426  -3.3575  -3.0916
    -2.1485  -1.4096  -1.2579  -0.4125   1.4049   3.4006   4.3605   4.6163
     5.4389

          k = 0.2333 0.4041 0.0000 ( 47187 PWs)   bands (ev):

   -53.8649 -30.0465 -29.9454 -29.9195 -11.2202 -10.9436  -3.1602  -2.6919
    -2.1634  -1.5058  -1.0630  -0.1010   1.1217   3.5313   3.9485   4.2931
     5.4922

          k = 0.2333 0.4426 0.0000 ( 47218 PWs)   bands (ev):

   -53.8638 -30.0522 -29.9565 -29.9165 -11.1301 -10.9008  -3.1907  -2.8589
    -2.1160  -1.4927  -1.2688  -0.2115   1.2175   3.5193   4.0663   4.3754
     5.5148

          k = 0.2333 0.4811 0.0000 ( 47215 PWs)   bands (ev):

   -53.8629 -30.0559 -29.9659 -29.9142 -11.0573 -10.8662  -3.2035  -2.9926
    -2.1002  -1.4630  -1.4270  -0.3176   1.3243   3.4455   4.2252   4.4442
     5.5287

          k = 0.2333 0.5196 0.0000 ( 47210 PWs)   bands (ev):

   -53.8623 -30.0581 -29.9728 -29.9125 -11.0060 -10.8417  -3.2039  -3.0855
    -2.1134  -1.5240  -1.4302  -0.4032   1.4223   3.3565   4.3726   4.4927
     5.5369

          k = 0.2333 0.5581 0.0000 ( 47216 PWs)   bands (ev):

   -53.8620 -30.0591 -29.9765 -29.9117 -10.9794 -10.8290  -3.2006  -3.1331
    -2.1326  -1.5658  -1.4084  -0.4519   1.4831   3.2967   4.4620   4.5176
     5.5406

          k = 0.2667 0.4619 0.0000 ( 47263 PWs)   bands (ev):

   -53.8629 -30.0531 -29.9691 -29.9141 -11.0562 -10.8650  -3.1582  -2.9934
    -2.0802  -1.5180  -1.4703  -0.3156   1.3315   3.4321   4.2336   4.4138
     5.5532

          k = 0.2667 0.5004 0.0000 ( 47249 PWs)   bands (ev):

   -53.8622 -30.0523 -29.9800 -29.9123 -11.0000 -10.8376  -3.1072  -3.0957
    -2.0806  -1.7074  -1.4353  -0.4110   1.4470   3.3175   4.4022   4.4394
     5.5872

          k = 0.2667 0.5389 0.0000 ( 47227 PWs)   bands (ev):

   -53.8618 -30.0509 -29.9877 -29.9112 -10.9649 -10.8205  -3.1595  -3.0556
    -2.1233  -1.8037  -1.4036  -0.4800   1.5385   3.2199   4.4533   4.5285
     5.6110

          k = 0.2667 0.5774 0.0000 ( 47245 PWs)   bands (ev):

   -53.8616 -30.0502 -29.9905 -29.9108 -10.9530 -10.8146  -3.1812  -3.0326
    -2.1529  -1.8270  -1.3906  -0.5056   1.5744   3.1810   4.4576   4.5757
     5.6196

          k = 0.3000 0.5196 0.0000 ( 47279 PWs)   bands (ev):

   -53.8617 -30.0472 -29.9924 -29.9110 -10.9600 -10.8175  -3.1686  -2.9903
    -2.1209  -1.8998  -1.4011  -0.4902   1.5589   3.1914   4.4310   4.5515
     5.6360

          k = 0.3000 0.5581 0.0000 ( 47253 PWs)   bands (ev):

   -53.8614 -30.0429 -30.0004 -29.9103 -10.9395 -10.8072  -3.2063  -2.8919
    -2.2279  -1.9509  -1.3774  -0.5368   1.6295   3.1107   4.4251   4.6380
     5.6638

          k = 0.3333 0.5774 0.0000 ( 47259 PWs)   bands (ev):

   -53.8613 -30.0385 -30.0064 -29.9100 -10.9309 -10.8026  -3.2223  -2.7967
    -2.3281  -1.9759  -1.3665  -0.5581   1.6651   3.0680   4.4150   4.6777
     5.6828

     the Fermi energy is     1.2656 ev

!    total energy              =    -156.05456894 Ry
     estimated scf accuracy    <          9.2E-14 Ry
     smearing contrib. (-TS)   =      -0.06046558 Ry
     internal energy E=F+TS    =    -155.99410336 Ry

     The total energy is F=E-TS. E is the sum of the following terms:
     one-electron contribution =    -456.78503508 Ry
     hartree contribution      =     230.25328644 Ry
     xc contribution           =     -26.76628842 Ry
     ewald contribution        =      97.30393371 Ry

     convergence has been achieved in  17 iterations

     negative rho (up, down):  5.972E-07 0.000E+00

     Forces acting on atoms (cartesian axes, Ry/au):

     atom    1 type  1   force =     0.00000000   -0.00000000    0.00000000
     atom    2 type  2   force =     0.00000000    0.00000000    0.00000275
     atom    3 type  2   force =     0.00000000    0.00000000   -0.00000275

     Total force =     0.000004     Total SCF correction =     0.000001
     SCF correction compared to forces is large: reduce conv_thr to get better values


     Computing stress (Cartesian axis) and pressure


     negative rho (up, down):  5.972E-07 0.000E+00
          total   stress  (Ry/bohr**3)                   (kbar)     P=       -0.48
  -0.00000490  -0.00000000   0.00000000           -0.72       -0.00        0.00
  -0.00000000  -0.00000490   0.00000000           -0.00       -0.72        0.00
   0.00000000   0.00000000   0.00000000            0.00        0.00        0.00


     Writing all to output data dir ./outdir/0.03.save/
 
     init_run     :      2.75s CPU      2.85s WALL (       1 calls)
     electrons    :     55.16s CPU     56.16s WALL (       1 calls)
     forces       :      0.22s CPU      0.23s WALL (       1 calls)
     stress       :      0.61s CPU      0.61s WALL (       1 calls)

     Called by init_run:
     wfcinit      :      2.48s CPU      2.51s WALL (       1 calls)
     potinit      :      0.03s CPU      0.03s WALL (       1 calls)
     hinit0       :      0.13s CPU      0.19s WALL (       1 calls)

     Called by electrons:
     c_bands      :     44.29s CPU     45.01s WALL (      18 calls)
     sum_band     :      7.67s CPU      7.81s WALL (      18 calls)
     v_of_rho     :      0.13s CPU      0.14s WALL (      18 calls)
     newd         :      0.31s CPU      0.32s WALL (      18 calls)
     mix_rho      :      2.74s CPU      2.76s WALL (      18 calls)

     Called by c_bands:
     init_us_2    :      0.61s CPU      0.64s WALL (    3549 calls)
     init_us_2:cp :      0.60s CPU      0.63s WALL (    3549 calls)
     cegterg      :     41.65s CPU     42.30s WALL (    1638 calls)

     Called by *egterg:
     cdiaghg      :      1.83s CPU      1.89s WALL (    5834 calls)
     h_psi        :     36.72s CPU     37.16s WALL (    6016 calls)
     s_psi        :      0.81s CPU      0.85s WALL (    6016 calls)
     g_psi        :      0.09s CPU      0.09s WALL (    4287 calls)

     Called by h_psi:
     h_psi:calbec :      1.72s CPU      1.81s WALL (    6016 calls)
     vloc_psi     :     33.94s CPU     34.24s WALL (    6016 calls)
     add_vuspsi   :      0.91s CPU      0.95s WALL (    6016 calls)

     General routines
     calbec       :      2.38s CPU      2.51s WALL (    8109 calls)
     fft          :      0.14s CPU      0.14s WALL (     224 calls)
     ffts         :      1.93s CPU      1.94s WALL (    4220 calls)
     fftw         :     38.37s CPU     38.74s WALL (  173814 calls)
 
     Parallel routines
 
     PWSCF        :   1m 0.92s CPU   1m 6.64s WALL

 
   This run was terminated on:   8:41:34  18Jun2022            

=------------------------------------------------------------------------------=
   JOB DONE.
=------------------------------------------------------------------------------=
