
     Program PWSCF v.7.0 starts on 18Jun2022 at  8:37:28 

     This program is part of the open-source Quantum ESPRESSO suite
     for quantum simulation of materials; please cite
         "P. Giannozzi et al., J. Phys.:Condens. Matter 21 395502 (2009);
         "P. Giannozzi et al., J. Phys.:Condens. Matter 29 465901 (2017);
         "P. Giannozzi et al., J. Chem. Phys. 152 154105 (2020);
          URL http://www.quantum-espresso.org", 
     in publications or presentations arising from this work. More details at
     http://www.quantum-espresso.org/quote

     Parallel version (MPI), running on    64 processors

     MPI processes distributed on     1 nodes
     470762 MiB available memory on the printing compute node when the environment starts
 
     Reading input from ./inputs/0.04-scf.in
Warning: card &CELL ignored
Warning: card / ignored

     Current dimensions of program PWSCF are:
     Max number of different atomic species (ntypx) = 10
     Max number of k-points (npk) =  40000
     Max angular momentum in pseudopotentials (lmaxx) =  4
     file Nb.pbe-spn-rrkjus_psl.1.0.0.UPF: wavefunction(s)  4S 4P renormalized
     file Se.pbe-mt_fhi.UPF: wavefunction(s)  4f renormalized
     Message from routine setup:
     using ibrav=0 with symmetry is DISCOURAGED, use correct ibrav instead
 
     R & G space division:  proc/nbgrp/npool/nimage =      64
     Subspace diagonalization in iterative solution of the eigenvalue problem:
     a serial algorithm will be used

 
     Parallelization info
     --------------------
     sticks:   dense  smooth     PW     G-vecs:    dense   smooth      PW
     Min          37      37     10                 5967     5967     846
     Max          38      38     11                 5980     5980     865
     Sum        2395    2395    649               382229   382229   54485
 
     Using Slab Decomposition
 


     bravais-lattice index     =            0
     lattice parameter (alat)  =       6.5821  a.u.
     unit-cell volume          =     999.7402 (a.u.)^3
     number of atoms/cell      =            3
     number of atomic types    =            2
     number of electrons       =        25.00
     number of Kohn-Sham states=           17
     kinetic-energy cutoff     =     200.0000  Ry
     charge density cutoff     =     800.0000  Ry
     scf convergence threshold =      1.0E-12
     mixing beta               =       0.7000
     number of iterations used =            8  local-TF  mixing
     Exchange-correlation= PBE
                           (   1   4   3   4   0   0   0)

     celldm(1)=   6.582061  celldm(2)=   0.000000  celldm(3)=   0.000000
     celldm(4)=   0.000000  celldm(5)=   0.000000  celldm(6)=   0.000000

     crystal axes: (cart. coord. in units of alat)
               a(1) = (   1.000000   0.000000   0.000000 )  
               a(2) = (  -0.500000   0.866025   0.000000 )  
               a(3) = (   0.000000   0.000000   4.048283 )  

     reciprocal axes: (cart. coord. in units 2 pi/alat)
               b(1) = (  1.000000  0.577350  0.000000 )  
               b(2) = (  0.000000  1.154701  0.000000 )  
               b(3) = (  0.000000  0.000000  0.247018 )  


     PseudoPot. # 1 for Nb read from file:
     ./PP/Nb.pbe-spn-rrkjus_psl.1.0.0.UPF
     MD5 check sum: 6ee677a9f002bd3e3657f443f129faad
     Pseudo is Ultrasoft + core correction, Zval = 13.0
     Generated using &quot;atomic&quot; code by A. Dal Corso  v.6.2.2
     Using radial grid of 1227 points,  6 beta functions with: 
                l(1) =   0
                l(2) =   0
                l(3) =   1
                l(4) =   1
                l(5) =   2
                l(6) =   2
     Q(r) pseudized with 0 coefficients 


     PseudoPot. # 2 for Se read from file:
     ./PP/Se.pbe-mt_fhi.UPF
     MD5 check sum: 761aa2365a2a775fd78ad90d13f3567a
     Pseudo is Norm-conserving, Zval =  6.0
     Generated using FHI98PP, converted with fhi2upf.x v.5.0.2
     Using radial grid of  533 points,  3 beta functions with: 
                l(1) =   0
                l(2) =   1
                l(3) =   3

     atomic species   valence    mass     pseudopotential
        Nb            13.00    92.90000     Nb( 1.00)
        Se             6.00    78.96000     Se( 1.00)

     12 Sym. Ops. (no inversion) found



   Cartesian axes

     site n.     atom                  positions (alat units)
         1           Nb  tau(   1) = (   0.0000000   0.0000000   2.0241415  )
         2           Se  tau(   2) = (  -0.0000000   0.5773503   1.5374809  )
         3           Se  tau(   3) = (  -0.0000000   0.5773503   2.5108022  )

     number of k points=    91  Fermi-Dirac smearing, width (Ry)=  0.0400
                       cart. coord. in units 2pi/alat
        k(    1) = (   0.0000000   0.0000000   0.0000000), wk =   0.0022222
        k(    2) = (   0.0000000   0.0384900   0.0000000), wk =   0.0133333
        k(    3) = (   0.0000000   0.0769800   0.0000000), wk =   0.0133333
        k(    4) = (   0.0000000   0.1154701   0.0000000), wk =   0.0133333
        k(    5) = (   0.0000000   0.1539601   0.0000000), wk =   0.0133333
        k(    6) = (   0.0000000   0.1924501   0.0000000), wk =   0.0133333
        k(    7) = (   0.0000000   0.2309401   0.0000000), wk =   0.0133333
        k(    8) = (   0.0000000   0.2694301   0.0000000), wk =   0.0133333
        k(    9) = (   0.0000000   0.3079201   0.0000000), wk =   0.0133333
        k(   10) = (   0.0000000   0.3464102   0.0000000), wk =   0.0133333
        k(   11) = (   0.0000000   0.3849002   0.0000000), wk =   0.0133333
        k(   12) = (   0.0000000   0.4233902   0.0000000), wk =   0.0133333
        k(   13) = (   0.0000000   0.4618802   0.0000000), wk =   0.0133333
        k(   14) = (   0.0000000   0.5003702   0.0000000), wk =   0.0133333
        k(   15) = (   0.0000000   0.5388603   0.0000000), wk =   0.0133333
        k(   16) = (   0.0000000  -0.5773503   0.0000000), wk =   0.0066667
        k(   17) = (   0.0333333   0.0577350   0.0000000), wk =   0.0133333
        k(   18) = (   0.0333333   0.0962250   0.0000000), wk =   0.0266667
        k(   19) = (   0.0333333   0.1347151   0.0000000), wk =   0.0266667
        k(   20) = (   0.0333333   0.1732051   0.0000000), wk =   0.0266667
        k(   21) = (   0.0333333   0.2116951   0.0000000), wk =   0.0266667
        k(   22) = (   0.0333333   0.2501851   0.0000000), wk =   0.0266667
        k(   23) = (   0.0333333   0.2886751   0.0000000), wk =   0.0266667
        k(   24) = (   0.0333333   0.3271652   0.0000000), wk =   0.0266667
        k(   25) = (   0.0333333   0.3656552   0.0000000), wk =   0.0266667
        k(   26) = (   0.0333333   0.4041452   0.0000000), wk =   0.0266667
        k(   27) = (   0.0333333   0.4426352   0.0000000), wk =   0.0266667
        k(   28) = (   0.0333333   0.4811252   0.0000000), wk =   0.0266667
        k(   29) = (   0.0333333   0.5196152   0.0000000), wk =   0.0266667
        k(   30) = (   0.0333333   0.5581053   0.0000000), wk =   0.0266667
        k(   31) = (   0.0666667   0.1154701   0.0000000), wk =   0.0133333
        k(   32) = (   0.0666667   0.1539601   0.0000000), wk =   0.0266667
        k(   33) = (   0.0666667   0.1924501   0.0000000), wk =   0.0266667
        k(   34) = (   0.0666667   0.2309401   0.0000000), wk =   0.0266667
        k(   35) = (   0.0666667   0.2694301   0.0000000), wk =   0.0266667
        k(   36) = (   0.0666667   0.3079201   0.0000000), wk =   0.0266667
        k(   37) = (   0.0666667   0.3464102   0.0000000), wk =   0.0266667
        k(   38) = (   0.0666667   0.3849002   0.0000000), wk =   0.0266667
        k(   39) = (   0.0666667   0.4233902   0.0000000), wk =   0.0266667
        k(   40) = (   0.0666667   0.4618802   0.0000000), wk =   0.0266667
        k(   41) = (   0.0666667   0.5003702   0.0000000), wk =   0.0266667
        k(   42) = (   0.0666667   0.5388603   0.0000000), wk =   0.0266667
        k(   43) = (   0.0666667   0.5773503   0.0000000), wk =   0.0133333
        k(   44) = (   0.1000000   0.1732051   0.0000000), wk =   0.0133333
        k(   45) = (   0.1000000   0.2116951   0.0000000), wk =   0.0266667
        k(   46) = (   0.1000000   0.2501851   0.0000000), wk =   0.0266667
        k(   47) = (   0.1000000   0.2886751   0.0000000), wk =   0.0266667
        k(   48) = (   0.1000000   0.3271652   0.0000000), wk =   0.0266667
        k(   49) = (   0.1000000   0.3656552   0.0000000), wk =   0.0266667
        k(   50) = (   0.1000000   0.4041452   0.0000000), wk =   0.0266667
        k(   51) = (   0.1000000   0.4426352   0.0000000), wk =   0.0266667
        k(   52) = (   0.1000000   0.4811252   0.0000000), wk =   0.0266667
        k(   53) = (   0.1000000   0.5196152   0.0000000), wk =   0.0266667
        k(   54) = (   0.1000000   0.5581053   0.0000000), wk =   0.0266667
        k(   55) = (   0.1333333   0.2309401   0.0000000), wk =   0.0133333
        k(   56) = (   0.1333333   0.2694301   0.0000000), wk =   0.0266667
        k(   57) = (   0.1333333   0.3079201   0.0000000), wk =   0.0266667
        k(   58) = (   0.1333333   0.3464102   0.0000000), wk =   0.0266667
        k(   59) = (   0.1333333   0.3849002   0.0000000), wk =   0.0266667
        k(   60) = (   0.1333333   0.4233902   0.0000000), wk =   0.0266667
        k(   61) = (   0.1333333   0.4618802   0.0000000), wk =   0.0266667
        k(   62) = (   0.1333333   0.5003702   0.0000000), wk =   0.0266667
        k(   63) = (   0.1333333   0.5388603   0.0000000), wk =   0.0266667
        k(   64) = (   0.1333333   0.5773503   0.0000000), wk =   0.0133333
        k(   65) = (   0.1666667   0.2886751   0.0000000), wk =   0.0133333
        k(   66) = (   0.1666667   0.3271652   0.0000000), wk =   0.0266667
        k(   67) = (   0.1666667   0.3656552   0.0000000), wk =   0.0266667
        k(   68) = (   0.1666667   0.4041452   0.0000000), wk =   0.0266667
        k(   69) = (   0.1666667   0.4426352   0.0000000), wk =   0.0266667
        k(   70) = (   0.1666667   0.4811252   0.0000000), wk =   0.0266667
        k(   71) = (   0.1666667   0.5196152   0.0000000), wk =   0.0266667
        k(   72) = (   0.1666667   0.5581053   0.0000000), wk =   0.0266667
        k(   73) = (   0.2000000   0.3464102   0.0000000), wk =   0.0133333
        k(   74) = (   0.2000000   0.3849002   0.0000000), wk =   0.0266667
        k(   75) = (   0.2000000   0.4233902   0.0000000), wk =   0.0266667
        k(   76) = (   0.2000000   0.4618802   0.0000000), wk =   0.0266667
        k(   77) = (   0.2000000   0.5003702   0.0000000), wk =   0.0266667
        k(   78) = (   0.2000000   0.5388603   0.0000000), wk =   0.0266667
        k(   79) = (   0.2000000   0.5773503   0.0000000), wk =   0.0133333
        k(   80) = (   0.2333333   0.4041452   0.0000000), wk =   0.0133333
        k(   81) = (   0.2333333   0.4426352   0.0000000), wk =   0.0266667
        k(   82) = (   0.2333333   0.4811252   0.0000000), wk =   0.0266667
        k(   83) = (   0.2333333   0.5196152   0.0000000), wk =   0.0266667
        k(   84) = (   0.2333333   0.5581053   0.0000000), wk =   0.0266667
        k(   85) = (   0.2666667   0.4618802   0.0000000), wk =   0.0133333
        k(   86) = (   0.2666667   0.5003702   0.0000000), wk =   0.0266667
        k(   87) = (   0.2666667   0.5388603   0.0000000), wk =   0.0266667
        k(   88) = (   0.2666667   0.5773503   0.0000000), wk =   0.0133333
        k(   89) = (   0.3000000   0.5196152   0.0000000), wk =   0.0133333
        k(   90) = (   0.3000000   0.5581053   0.0000000), wk =   0.0266667
        k(   91) = (   0.3333333   0.5773503   0.0000000), wk =   0.0044444

     Dense  grid:   382229 G-vectors     FFT dimensions: (  60,  60, 240)

     Estimated max dynamical RAM per process >      48.76 MB

     Estimated total dynamical RAM >       3.05 GB

     Initial potential from superposition of free atoms

     starting charge      24.9985, renormalised to      25.0000

     negative rho (up, down):  2.522E-03 0.000E+00
     Starting wfcs are   45 randomized atomic wfcs

     total cpu time spent up to now is        3.3 secs

     Self-consistent Calculation

     iteration #  1     ecut=   200.00 Ry     beta= 0.70
     Davidson diagonalization with overlap
     ethr =  1.00E-02,  avg # of iterations =  1.8

     Threshold (ethr) on eigenvalues was too large:
     Diagonalizing with lowered threshold

     Davidson diagonalization with overlap
     ethr =  3.18E-04,  avg # of iterations =  4.2

     negative rho (up, down):  2.263E-06 0.000E+00

     total cpu time spent up to now is        9.5 secs

     total energy              =    -156.08154410 Ry
     estimated scf accuracy    <       0.09379919 Ry

     iteration #  2     ecut=   200.00 Ry     beta= 0.70
     Davidson diagonalization with overlap
     ethr =  3.75E-04,  avg # of iterations =  1.1

     total cpu time spent up to now is       12.0 secs

     total energy              =    -156.06891800 Ry
     estimated scf accuracy    <       0.04036040 Ry

     iteration #  3     ecut=   200.00 Ry     beta= 0.70
     Davidson diagonalization with overlap
     ethr =  1.61E-04,  avg # of iterations =  2.2

     total cpu time spent up to now is       15.0 secs

     total energy              =    -156.07769356 Ry
     estimated scf accuracy    <       0.00359631 Ry

     iteration #  4     ecut=   200.00 Ry     beta= 0.70
     Davidson diagonalization with overlap
     ethr =  1.44E-05,  avg # of iterations =  3.6

     total cpu time spent up to now is       18.3 secs

     total energy              =    -156.07778133 Ry
     estimated scf accuracy    <       0.00195138 Ry

     iteration #  5     ecut=   200.00 Ry     beta= 0.70
     Davidson diagonalization with overlap
     ethr =  7.81E-06,  avg # of iterations =  2.9

     total cpu time spent up to now is       21.1 secs

     total energy              =    -156.07776625 Ry
     estimated scf accuracy    <       0.00105127 Ry

     iteration #  6     ecut=   200.00 Ry     beta= 0.70
     Davidson diagonalization with overlap
     ethr =  4.21E-06,  avg # of iterations =  2.7

     total cpu time spent up to now is       24.2 secs

     total energy              =    -156.07796744 Ry
     estimated scf accuracy    <       0.00027582 Ry

     iteration #  7     ecut=   200.00 Ry     beta= 0.70
     Davidson diagonalization with overlap
     ethr =  1.10E-06,  avg # of iterations =  4.4

     total cpu time spent up to now is       27.9 secs

     total energy              =    -156.07805021 Ry
     estimated scf accuracy    <       0.00009428 Ry

     iteration #  8     ecut=   200.00 Ry     beta= 0.70
     Davidson diagonalization with overlap
     ethr =  3.77E-07,  avg # of iterations =  2.0

     negative rho (up, down):  8.976E-07 0.000E+00

     total cpu time spent up to now is       31.0 secs

     total energy              =    -156.07805533 Ry
     estimated scf accuracy    <       0.00002109 Ry

     iteration #  9     ecut=   200.00 Ry     beta= 0.70
     Davidson diagonalization with overlap
     ethr =  8.44E-08,  avg # of iterations =  4.2

     negative rho (up, down):  2.282E-07 0.000E+00

     total cpu time spent up to now is       35.0 secs

     total energy              =    -156.07806256 Ry
     estimated scf accuracy    <       0.00000312 Ry

     iteration # 10     ecut=   200.00 Ry     beta= 0.70
     Davidson diagonalization with overlap
     ethr =  1.25E-08,  avg # of iterations =  2.3

     negative rho (up, down):  2.244E-07 0.000E+00

     total cpu time spent up to now is       38.0 secs

     total energy              =    -156.07806243 Ry
     estimated scf accuracy    <       0.00000084 Ry

     iteration # 11     ecut=   200.00 Ry     beta= 0.70
     Davidson diagonalization with overlap
     ethr =  3.37E-09,  avg # of iterations =  3.1

     negative rho (up, down):  3.656E-07 0.000E+00

     total cpu time spent up to now is       41.4 secs

     total energy              =    -156.07806264 Ry
     estimated scf accuracy    <          1.5E-09 Ry

     iteration # 12     ecut=   200.00 Ry     beta= 0.70
     Davidson diagonalization with overlap
     ethr =  6.02E-12,  avg # of iterations =  9.5

     negative rho (up, down):  3.095E-07 0.000E+00

     total cpu time spent up to now is       48.4 secs

     total energy              =    -156.07806266 Ry
     estimated scf accuracy    <          3.5E-09 Ry

     iteration # 13     ecut=   200.00 Ry     beta= 0.70
     Davidson diagonalization with overlap
     ethr =  6.02E-12,  avg # of iterations =  2.7

     negative rho (up, down):  2.971E-07 0.000E+00

     total cpu time spent up to now is       51.7 secs

     total energy              =    -156.07806265 Ry
     estimated scf accuracy    <          7.4E-11 Ry

     iteration # 14     ecut=   200.00 Ry     beta= 0.70
     Davidson diagonalization with overlap
     ethr =  2.97E-13,  avg # of iterations =  5.4

     negative rho (up, down):  2.978E-07 0.000E+00

     total cpu time spent up to now is       56.3 secs

     total energy              =    -156.07806265 Ry
     estimated scf accuracy    <          2.0E-10 Ry

     iteration # 15     ecut=   200.00 Ry     beta= 0.70
     Davidson diagonalization with overlap
     ethr =  2.97E-13,  avg # of iterations =  2.0

     negative rho (up, down):  3.005E-07 0.000E+00

     total cpu time spent up to now is       59.6 secs

     total energy              =    -156.07806265 Ry
     estimated scf accuracy    <          6.7E-12 Ry

     iteration # 16     ecut=   200.00 Ry     beta= 0.70
     Davidson diagonalization with overlap
     ethr =  1.00E-13,  avg # of iterations =  2.8

     negative rho (up, down):  3.004E-07 0.000E+00

     total cpu time spent up to now is       62.5 secs

     End of self-consistent calculation

          k = 0.0000 0.0000 0.0000 ( 47777 PWs)   bands (ev):

   -53.8901 -29.9820 -29.8661 -29.8661 -12.5145 -11.6038  -3.7612  -0.7167
    -0.7167  -0.4186   0.2049   0.2049   1.6203   3.9391   3.9391   4.0860
     4.0860

          k = 0.0000 0.0385 0.0000 ( 47787 PWs)   bands (ev):

   -53.8899 -29.9814 -29.8687 -29.8667 -12.5024 -11.5981  -3.7446  -0.7613
    -0.7048  -0.4637   0.1798   0.2211   1.6125   3.9068   3.9662   4.0312
     4.0702

          k = 0.0000 0.0770 0.0000 ( 47741 PWs)   bands (ev):

   -53.8892 -29.9798 -29.8765 -29.8684 -12.4663 -11.5811  -3.6954  -0.8894
    -0.6695  -0.5815   0.1081   0.2496   1.5868   3.8281   3.8966   4.0249
     4.0437

          k = 0.0000 0.1155 0.0000 ( 47715 PWs)   bands (ev):

   -53.8882 -29.9771 -29.8890 -29.8713 -12.4071 -11.5533  -3.6157  -1.0861
    -0.7449  -0.6125  -0.0016   0.2580   1.5373   3.7357   3.7442   3.9560
     4.1613

          k = 0.0000 0.1540 0.0000 ( 47723 PWs)   bands (ev):

   -53.8868 -29.9735 -29.9057 -29.8751 -12.3266 -11.5154  -3.5096  -1.3323
    -0.9385  -0.5361  -0.1380   0.2284   1.4568   3.5899   3.6951   3.8722
     4.3059

          k = 0.0000 0.1925 0.0000 ( 47729 PWs)   bands (ev):

   -53.8852 -29.9692 -29.9258 -29.8796 -12.2269 -11.4686  -3.3834  -1.6081
    -1.1557  -0.4442  -0.2901   0.1601   1.3423   3.4853   3.7034   3.7831
     4.4638

          k = 0.0000 0.2309 0.0000 ( 47724 PWs)   bands (ev):

   -53.8833 -29.9643 -29.9484 -29.8848 -12.1112 -11.4142  -3.2479  -1.8936
    -1.3923  -0.4480  -0.3412   0.0654   1.2004   3.4330   3.6980   3.7718
     4.6234

          k = 0.0000 0.2694 0.0000 ( 47720 PWs)   bands (ev):

   -53.8813 -29.9725 -29.9591 -29.8903 -11.9830 -11.3542  -3.1226  -2.1649
    -1.6428  -0.6041  -0.2327  -0.0390   1.0479   3.4312   3.6252   3.8896
     4.7751

          k = 0.0000 0.3079 0.0000 ( 47732 PWs)   bands (ev):

   -53.8793 -29.9970 -29.9537 -29.8960 -11.8469 -11.2907  -3.0512  -2.3784
    -1.8992  -0.7523  -0.1390  -0.1245   0.9068   3.4703   3.5712   4.0402
     4.9126

          k = 0.0000 0.3464 0.0000 ( 47746 PWs)   bands (ev):

   -53.8773 -30.0208 -29.9485 -29.9015 -11.7082 -11.2263  -3.1063  -2.4640
    -2.1509  -0.8879  -0.2263  -0.0225   0.7979   3.5390   3.5397   4.2063
     5.0317

          k = 0.0000 0.3849 0.0000 ( 47726 PWs)   bands (ev):

   -53.8754 -30.0430 -29.9436 -29.9066 -11.5731 -11.1641  -3.2742  -2.4378
    -2.3867  -1.0075  -0.2976   0.0681   0.7356   3.5311   3.6262   4.3716
     5.1306

          k = 0.0000 0.4234 0.0000 ( 47764 PWs)   bands (ev):

   -53.8738 -30.0626 -29.9392 -29.9111 -11.4483 -11.1070  -3.4681  -2.5958
    -2.3847  -1.1083  -0.3527   0.1437   0.7234   3.5423   3.7224   4.5217
     5.2092

          k = 0.0000 0.4619 0.0000 ( 47766 PWs)   bands (ev):

   -53.8724 -30.0787 -29.9356 -29.9149 -11.3410 -11.0584  -3.6427  -2.7689
    -2.3422  -1.1886  -0.3928   0.2022   0.7518   3.5663   3.8182   4.6457
     5.2683

          k = 0.0000 0.5004 0.0000 ( 47756 PWs)   bands (ev):

   -53.8714 -30.0907 -29.9330 -29.9177 -11.2581 -11.0212  -3.7781  -2.8981
    -2.3166  -1.2468  -0.4197   0.2433   0.8001   3.5938   3.9034   4.7364
     5.3092

          k = 0.0000 0.5389 0.0000 ( 47768 PWs)   bands (ev):

   -53.8708 -30.0981 -29.9313 -29.9194 -11.2056 -10.9977  -3.8635  -2.9780
    -2.3046  -1.2821  -0.4351   0.2675   0.8430   3.6152   3.9644   4.7910
     5.3332

          k = 0.0000-0.5774 0.0000 ( 47756 PWs)   bands (ev):

   -53.8705 -30.1006 -29.9307 -29.9200 -11.1876 -10.9897  -3.8926  -3.0050
    -2.3012  -1.2939  -0.4402   0.2755   0.8600   3.6233   3.9870   4.8092
     5.3411

          k = 0.0333 0.0577 0.0000 ( 47739 PWs)   bands (ev):

   -53.8894 -29.9803 -29.8739 -29.8679 -12.4782 -11.5868  -3.7117  -0.8473
    -0.6815  -0.5441   0.1267   0.2472   1.5957   3.8501   3.9379   4.0198
     4.0390

          k = 0.0333 0.0962 0.0000 ( 47736 PWs)   bands (ev):

   -53.8886 -29.9782 -29.8840 -29.8702 -12.4306 -11.5643  -3.6472  -1.0088
    -0.6803  -0.6362   0.0239   0.2740   1.5582   3.7662   3.7937   3.9807
     4.1204

          k = 0.0333 0.1347 0.0000 ( 47717 PWs)   bands (ev):

   -53.8874 -29.9750 -29.8985 -29.8736 -12.3608 -11.5315  -3.5541  -1.2286
    -0.8524  -0.5710  -0.1146   0.2735   1.4931   3.6438   3.6970   3.9036
     4.2551

          k = 0.0333 0.1732 0.0000 ( 47684 PWs)   bands (ev):

   -53.8859 -29.9711 -29.9167 -29.8779 -12.2707 -11.4891  -3.4375  -1.4875
    -1.0513  -0.4893  -0.2739   0.2344   1.3954   3.5203   3.6742   3.8180
     4.4096

          k = 0.0333 0.2117 0.0000 ( 47715 PWs)   bands (ev):

   -53.8842 -29.9665 -29.9380 -29.8829 -12.1629 -11.4384  -3.3055  -1.7660
    -1.2734  -0.4397  -0.3956   0.1601   1.2670   3.4409   3.7109   3.7348
     4.5707

          k = 0.0333 0.2502 0.0000 ( 47732 PWs)   bands (ev):

   -53.8822 -29.9614 -29.9612 -29.8884 -12.0408 -11.3812  -3.1723  -2.0434
    -1.5150  -0.6007  -0.2956   0.0632   1.1204   3.4087   3.6644   3.8032
     4.7275

          k = 0.0333 0.2887 0.0000 ( 47727 PWs)   bands (ev):

   -53.8802 -29.9853 -29.9561 -29.8942 -11.9086 -11.3193  -3.0669  -2.2889
    -1.7691  -0.7498  -0.1958  -0.0411   0.9761   3.4150   3.6174   3.9375
     4.8717

          k = 0.0333 0.3272 0.0000 ( 47726 PWs)   bands (ev):

   -53.8782 -30.0093 -29.9508 -29.8999 -11.7710 -11.2553  -3.0524  -2.4408
    -2.0253  -0.8833  -0.1410  -0.1028   0.8568   3.4431   3.6049   4.0973
     4.9977

          k = 0.0333 0.3657 0.0000 ( 47748 PWs)   bands (ev):

   -53.8763 -30.0322 -29.9458 -29.9054 -11.6339 -11.1918  -3.1753  -2.4558
    -2.2717  -1.0000  -0.2290  -0.0221   0.7808   3.4755   3.6352   4.2662
     5.1018

          k = 0.0333 0.4041 0.0000 ( 47746 PWs)   bands (ev):

   -53.8745 -30.0529 -29.9411 -29.9103 -11.5036 -11.1320  -3.3634  -2.4966
    -2.4068  -1.0991  -0.3014   0.0441   0.7557   3.5082   3.7004   4.4297
     5.1822

          k = 0.0333 0.4426 0.0000 ( 47771 PWs)   bands (ev):

   -53.8730 -30.0707 -29.9372 -29.9146 -11.3872 -11.0789  -3.5491  -2.6896
    -2.3567  -1.1799  -0.3574   0.0966   0.7754   3.5440   3.7828   4.5754
     5.2389

          k = 0.0333 0.4811 0.0000 ( 47753 PWs)   bands (ev):

   -53.8718 -30.0846 -29.9340 -29.9180 -11.2917 -11.0358  -3.7041  -2.8422
    -2.3231  -1.2415  -0.3978   0.1369   0.8224   3.5793   3.8679   4.6939
     5.2739

          k = 0.0333 0.5196 0.0000 ( 47760 PWs)   bands (ev):

   -53.8710 -30.0943 -29.9318 -29.9203 -11.2238 -11.0053  -3.8143  -2.9477
    -2.3052  -1.2830  -0.4238   0.1647   0.8734   3.6074   3.9411   4.7777
     5.2917

          k = 0.0333 0.5581 0.0000 ( 47780 PWs)   bands (ev):

   -53.8705 -30.0992 -29.9307 -29.9215 -11.1884 -10.9895  -3.8714  -3.0016
    -2.2982  -1.3040  -0.4364   0.1788   0.9059   3.6226   3.9848   4.8215
     5.2982

          k = 0.0667 0.1155 0.0000 ( 47723 PWs)   bands (ev):

   -53.8876 -29.9756 -29.8959 -29.8733 -12.3723 -11.5369  -3.5692  -1.1916
    -0.8186  -0.5843  -0.1228   0.3013   1.5051   3.6651   3.6934   3.9125
     4.2424

          k = 0.0667 0.1540 0.0000 ( 47711 PWs)   bands (ev):

   -53.8863 -29.9721 -29.9118 -29.8774 -12.2928 -11.4995  -3.4651  -1.4208
    -0.9843  -0.5171  -0.3055   0.3032   1.4226   3.5419   3.6458   3.8331
     4.3928

          k = 0.0667 0.1925 0.0000 ( 47706 PWs)   bands (ev):

   -53.8847 -29.9678 -29.9310 -29.8823 -12.1946 -11.4533  -3.3414  -1.6783
    -1.1757  -0.4992  -0.4394   0.2684   1.3105   3.4449   3.6475   3.7567
     4.5555

          k = 0.0667 0.2309 0.0000 ( 47729 PWs)   bands (ev):

   -53.8828 -29.9631 -29.9525 -29.8880 -12.0804 -11.3996  -3.2084  -1.9453
    -1.3946  -0.6817  -0.3576   0.1992   1.1773   3.3830   3.6964   3.7054
     4.7172

          k = 0.0667 0.2694 0.0000 ( 47722 PWs)   bands (ev):

   -53.8809 -29.9754 -29.9579 -29.8940 -11.9541 -11.3404  -3.0862  -2.1980
    -1.6380  -0.8396  -0.2794   0.1059   1.0410   3.3554   3.6621   3.8131
     4.8676

          k = 0.0667 0.3079 0.0000 ( 47740 PWs)   bands (ev):

   -53.8789 -29.9988 -29.9527 -29.9001 -11.8201 -11.2777  -3.0198  -2.3916
    -1.8952  -0.9699  -0.2128   0.0013   0.9243   3.3573   3.6576   3.9570
     4.9988

          k = 0.0667 0.3464 0.0000 ( 47770 PWs)   bands (ev):

   -53.8769 -30.0215 -29.9476 -29.9061 -11.6837 -11.2143  -3.0807  -2.4578
    -2.1511  -1.0753  -0.1629  -0.1034   0.8474   3.3848   3.6798   4.1217
     5.1051

          k = 0.0667 0.3849 0.0000 ( 47747 PWs)   bands (ev):

   -53.8751 -30.0426 -29.9428 -29.9117 -11.5508 -11.1529  -3.2458  -2.4221
    -2.3915  -1.1598  -0.1998  -0.1286   0.8197   3.4338   3.7216   4.2934
     5.1825

          k = 0.0667 0.4234 0.0000 ( 47740 PWs)   bands (ev):

   -53.8735 -30.0612 -29.9385 -29.9167 -11.4283 -11.0966  -3.4320  -2.6044
    -2.3666  -1.2262  -0.2825  -0.1033   0.8371   3.4952   3.7774   4.4601
     5.2285

          k = 0.0667 0.4619 0.0000 ( 47750 PWs)   bands (ev):

   -53.8722 -30.0766 -29.9350 -29.9208 -11.3231 -11.0487  -3.5987  -2.7800
    -2.3245  -1.2767  -0.3484  -0.0813   0.8848   3.5536   3.8453   4.6125
     5.2434

          k = 0.0667 0.5004 0.0000 ( 47748 PWs)   bands (ev):

   -53.8712 -30.0880 -29.9324 -29.9239 -11.2418 -11.0119  -3.7278  -2.9109
    -2.3003  -1.3122  -0.3959  -0.0621   0.9430   3.5949   3.9198   4.7420
     5.2319

          k = 0.0667 0.5389 0.0000 ( 47757 PWs)   bands (ev):

   -53.8705 -30.0951 -29.9307 -29.9257 -11.1905 -10.9888  -3.8091  -2.9916
    -2.2893  -1.3334  -0.4246  -0.0489   0.9901   3.6161   3.9819   4.8368
     5.2063

          k = 0.0667 0.5774 0.0000 ( 47766 PWs)   bands (ev):

   -53.8703 -30.0975 -29.9302 -29.9264 -11.1729 -10.9809  -3.8368  -3.0189
    -2.2864  -1.3404  -0.4341  -0.0441   1.0082   3.6222   4.0066   4.8744
     5.1915

          k = 0.1000 0.1732 0.0000 ( 47709 PWs)   bands (ev):

   -53.8848 -29.9683 -29.9285 -29.8823 -12.2052 -11.4582  -3.3535  -1.6468
    -1.1346  -0.5323  -0.4563   0.3122   1.3255   3.4464   3.6207   3.7633
     4.5538

          k = 0.1000 0.2117 0.0000 ( 47730 PWs)   bands (ev):

   -53.8832 -29.9639 -29.9477 -29.8881 -12.1005 -11.4090  -3.2272  -1.8897
    -1.3098  -0.7573  -0.3957   0.2860   1.2082   3.3681   3.6411   3.7119
     4.7197

          k = 0.1000 0.2502 0.0000 ( 47722 PWs)   bands (ev):

   -53.8813 -29.9686 -29.9590 -29.8946 -11.9820 -11.3533  -3.1006  -2.1302
    -1.5219  -0.9475  -0.3445   0.2242   1.0856   3.3146   3.6883   3.7121
     4.8767

          k = 0.1000 0.2887 0.0000 ( 47749 PWs)   bands (ev):

   -53.8794 -29.9904 -29.9540 -29.9013 -11.8538 -11.2931  -3.0045  -2.3363
    -1.7685  -1.0895  -0.3115   0.1353   0.9782   3.2925   3.6921   3.8273
     5.0146

          k = 0.1000 0.3272 0.0000 ( 47751 PWs)   bands (ev):

   -53.8775 -30.0120 -29.9489 -29.9081 -11.7206 -11.2308  -3.0050  -2.4445
    -2.0296  -1.1907  -0.3014   0.0304   0.9056   3.3064   3.7161   3.9744
     5.1261

          k = 0.1000 0.3657 0.0000 ( 47741 PWs)   bands (ev):

   -53.8756 -30.0326 -29.9440 -29.9147 -11.5880 -11.1691  -3.1304  -2.4302
    -2.2838  -1.2623  -0.3098  -0.0790   0.8778   3.3556   3.7513   4.1398
     5.2057

          k = 0.1000 0.4041 0.0000 ( 47744 PWs)   bands (ev):

   -53.8739 -30.0513 -29.9396 -29.9206 -11.4624 -11.1109  -3.3043  -2.5155
    -2.3721  -1.3124  -0.3246  -0.1838   0.8926   3.4310   3.7919   4.3117
     5.2497

          k = 0.1000 0.4426 0.0000 ( 47745 PWs)   bands (ev):

   -53.8725 -30.0673 -29.9358 -29.9257 -11.3504 -11.0594  -3.4722  -2.7133
    -2.3213  -1.3460  -0.3352  -0.2765   0.9397   3.5122   3.8410   4.4804
     5.2565

          k = 0.1000 0.4811 0.0000 ( 47752 PWs)   bands (ev):

   -53.8713 -30.0799 -29.9328 -29.9297 -11.2587 -11.0175  -3.6115  -2.8689
    -2.2899  -1.3672  -0.3513  -0.3380   1.0032   3.5710   3.9081   4.6388
     5.2280

          k = 0.1000 0.5196 0.0000 ( 47769 PWs)   bands (ev):

   -53.8705 -30.0886 -29.9325 -29.9307 -11.1935 -10.9879  -3.7103  -2.9760
    -2.2751  -1.3791  -0.4038  -0.3362   1.0637   3.5959   3.9851   4.7799
     5.1711

          k = 0.1000 0.5581 0.0000 ( 47777 PWs)   bands (ev):

   -53.8701 -30.0930 -29.9339 -29.9297 -11.1596 -10.9725  -3.7615  -3.0306
    -2.2699  -1.3844  -0.4310  -0.3339   1.1009   3.6011   4.0382   4.8860
     5.1060

          k = 0.1333 0.2309 0.0000 ( 47711 PWs)   bands (ev):

   -53.8815 -29.9662 -29.9594 -29.8949 -11.9914 -11.3576  -3.1058  -2.1050
    -1.4679  -1.0009  -0.3690   0.2688   1.1014   3.3001   3.6734   3.6966
     4.8817

          k = 0.1333 0.2694 0.0000 ( 47718 PWs)   bands (ev):

   -53.8796 -29.9857 -29.9546 -29.9024 -11.8709 -11.3009  -2.9991  -2.3001
    -1.6742  -1.1854  -0.3695   0.2144   1.0075   3.2576   3.7087   3.7498
     5.0271

          k = 0.1333 0.3079 0.0000 ( 47725 PWs)   bands (ev):

   -53.8778 -30.0054 -29.9497 -29.9102 -11.7433 -11.2409  -2.9583  -2.4254
    -1.9239  -1.3014  -0.4016   0.1296   0.9435   3.2543   3.7381   3.8653
     5.1465

          k = 0.1333 0.3464 0.0000 ( 47714 PWs)   bands (ev):

   -53.8759 -30.0245 -29.9449 -29.9179 -11.6137 -11.1802  -3.0362  -2.4322
    -2.1843  -1.3707  -0.4585   0.0250   0.9185   3.2948   3.7740   4.0088
     5.2337

          k = 0.1333 0.3849 0.0000 ( 47747 PWs)   bands (ev):

   -53.8742 -30.0423 -29.9405 -29.9251 -11.4879 -11.1214  -3.1843  -2.4304
    -2.3739  -1.4107  -0.5238  -0.0879   0.9321   3.3723   3.8095   4.1683
     5.2851

          k = 0.1333 0.4234 0.0000 ( 47751 PWs)   bands (ev):

   -53.8727 -30.0579 -29.9365 -29.9316 -11.3723 -11.0676  -3.3405  -2.6472
    -2.3143  -1.4306  -0.5808  -0.1984   0.9779   3.4654   3.8479   4.3323
     5.2994

          k = 0.1333 0.4619 0.0000 ( 47762 PWs)   bands (ev):

   -53.8715 -30.0708 -29.9369 -29.9332 -11.2732 -11.0218  -3.4780  -2.8249
    -2.2748  -1.4368  -0.6206  -0.2973   1.0450   3.5371   3.9073   4.4916
     5.2786

          k = 0.1333 0.5004 0.0000 ( 47771 PWs)   bands (ev):

   -53.8705 -30.0804 -29.9409 -29.9308 -11.1970 -10.9867  -3.5841  -2.9567
    -2.2556  -1.4349  -0.6432  -0.3759   1.1172   3.5616   3.9961   4.6369
     5.2298

          k = 0.1333 0.5389 0.0000 ( 47773 PWs)   bands (ev):

   -53.8700 -30.0863 -29.9434 -29.9292 -11.1489 -10.9647  -3.6508  -3.0378
    -2.2492  -1.4308  -0.6536  -0.4269   1.1739   3.5567   4.0796   4.7535
     5.1694

          k = 0.1333 0.5774 0.0000 ( 47778 PWs)   bands (ev):

   -53.8698 -30.0883 -29.9442 -29.9287 -11.1325 -10.9571  -3.6735  -3.0651
    -2.2481  -1.4288  -0.6565  -0.4446   1.1955   3.5512   4.1137   4.8044
     5.1368

          k = 0.1667 0.2887 0.0000 ( 47707 PWs)   bands (ev):

   -53.8779 -30.0030 -29.9500 -29.9111 -11.7509 -11.2443  -2.9429  -2.4162
    -1.8765  -1.3517  -0.4383   0.1661   0.9566   3.2360   3.7453   3.8251
     5.1545

          k = 0.1667 0.3272 0.0000 ( 47709 PWs)   bands (ev):

   -53.8761 -30.0199 -29.9454 -29.9201 -11.6268 -11.1858  -2.9827  -2.4311
    -2.1179  -1.4450  -0.5430   0.0848   0.9392   3.2620   3.7857   3.9339
     5.2514

          k = 0.1667 0.3657 0.0000 ( 47730 PWs)   bands (ev):

   -53.8744 -30.0357 -29.9410 -29.9289 -11.5037 -11.1278  -3.0961  -2.3735
    -2.3639  -1.4909  -0.6644  -0.0189   0.9550   3.3325   3.8220   4.0662
     5.3146

          k = 0.1667 0.4041 0.0000 ( 47761 PWs)   bands (ev):

   -53.8729 -30.0499 -29.9372 -29.9370 -11.3875 -11.0733  -3.2268  -2.5906
    -2.3052  -1.5075  -0.7804  -0.1330   1.0008   3.4268   3.8567   4.2099
     5.3440

          k = 0.1667 0.4426 0.0000 ( 47751 PWs)   bands (ev):

   -53.8716 -30.0620 -29.9444 -29.9335 -11.2844 -11.0249  -3.3474  -2.7844
    -2.2558  -1.5048  -0.8739  -0.2458   1.0706   3.5027   3.9123   4.3532
     5.3424

          k = 0.1667 0.4811 0.0000 ( 47764 PWs)   bands (ev):

   -53.8705 -30.0714 -29.9501 -29.9308 -11.2004 -10.9857  -3.4458  -2.9367
    -2.2311  -1.4912  -0.9380  -0.3456   1.1529   3.5219   4.0106   4.4846
     5.3168

          k = 0.1667 0.5196 0.0000 ( 47791 PWs)   bands (ev):

   -53.8698 -30.0779 -29.9541 -29.9289 -11.1409 -10.9579  -3.5150  -3.0414
    -2.2245  -1.4746  -0.9750  -0.4212   1.2287   3.4997   4.1225   4.5908
     5.2796

          k = 0.1667 0.5581 0.0000 ( 47784 PWs)   bands (ev):

   -53.8695 -30.0812 -29.9561 -29.9279 -11.1100 -10.9435  -3.5507  -3.0947
    -2.2248  -1.4635  -0.9912  -0.4624   1.2750   3.4759   4.1961   4.6534
     5.2509

          k = 0.2000 0.3464 0.0000 ( 47697 PWs)   bands (ev):

   -53.8745 -30.0333 -29.9412 -29.9305 -11.5090 -11.1300  -3.0632  -2.3729
    -2.3376  -1.5226  -0.7157   0.0062   0.9625   3.3185   3.8264   4.0294
     5.3259

          k = 0.2000 0.3849 0.0000 ( 47724 PWs)   bands (ev):

   -53.8730 -30.0452 -29.9407 -29.9372 -11.3954 -11.0761  -3.1592  -2.5568
    -2.2983  -1.5538  -0.8949  -0.0959   1.0114   3.4053   3.8622   4.1416
     5.3710

          k = 0.2000 0.4234 0.0000 ( 47747 PWs)   bands (ev):

   -53.8717 -30.0553 -29.9502 -29.9337 -11.2915 -11.0268  -3.2481  -2.7551
    -2.2371  -1.5547  -1.0570  -0.2089   1.0841   3.4778   3.9175   4.2582
     5.3909

          k = 0.2000 0.4619 0.0000 ( 47768 PWs)   bands (ev):

   -53.8705 -30.0634 -29.9583 -29.9308 -11.2030 -10.9848  -3.3208  -2.9197
    -2.2028  -1.5369  -1.1840  -0.3197   1.1743   3.4880   4.0232   4.3668
     5.3914

          k = 0.2000 0.5004 0.0000 ( 47753 PWs)   bands (ev):

   -53.8697 -30.0692 -29.9646 -29.9286 -11.1353 -10.9527  -3.3735  -3.0426
    -2.1947  -1.5111  -1.2681  -0.4147   1.2674   3.4451   4.1582   4.4560
     5.3807

          k = 0.2000 0.5389 0.0000 ( 47772 PWs)   bands (ev):

   -53.8692 -30.0727 -29.9685 -29.9272 -11.0927 -10.9325  -3.4052  -3.1184
    -2.2000  -1.4884  -1.3129  -0.4800   1.3400   3.3939   4.2696   4.5154
     5.3681

          k = 0.2000 0.5774 0.0000 ( 47759 PWs)   bands (ev):

   -53.8690 -30.0739 -29.9699 -29.9268 -11.0781 -10.9256  -3.4157  -3.1440
    -2.2039  -1.4794  -1.3266  -0.5034   1.3680   3.3719   4.3129   4.5364
     5.3627

          k = 0.2333 0.4041 0.0000 ( 47729 PWs)   bands (ev):

   -53.8717 -30.0528 -29.9524 -29.9337 -11.2939 -11.0274  -3.2103  -2.7442
    -2.2286  -1.5731  -1.1255  -0.1955   1.0883   3.4688   3.9196   4.2246
     5.4086

          k = 0.2333 0.4426 0.0000 ( 47762 PWs)   bands (ev):

   -53.8705 -30.0584 -29.9634 -29.9308 -11.2044 -10.9844  -3.2435  -2.9099
    -2.1796  -1.5626  -1.3321  -0.3048   1.1844   3.4687   4.0304   4.3034
     5.4335

          k = 0.2333 0.4811 0.0000 ( 47767 PWs)   bands (ev):

   -53.8697 -30.0621 -29.9728 -29.9284 -11.1320 -10.9494  -3.2589  -3.0428
    -2.1613  -1.5353  -1.4917  -0.4093   1.2908   3.4064   4.1812   4.3687
     5.4501

          k = 0.2333 0.5196 0.0000 ( 47782 PWs)   bands (ev):

   -53.8690 -30.0642 -29.9797 -29.9268 -11.0810 -10.9248  -3.2616  -3.1352
    -2.1715  -1.5903  -1.5042  -0.4936   1.3879   3.3250   4.3234   4.4143
     5.4605

          k = 0.2333 0.5581 0.0000 ( 47780 PWs)   bands (ev):

   -53.8687 -30.0652 -29.9834 -29.9260 -11.0546 -10.9120  -3.2596  -3.1825
    -2.1886  -1.6332  -1.4835  -0.5416   1.4481   3.2691   4.4101   4.4376
     5.4657

          k = 0.2667 0.4619 0.0000 ( 47747 PWs)   bands (ev):

   -53.8696 -30.0592 -29.9760 -29.9284 -11.1309 -10.9483  -3.2134  -3.0427
    -2.1428  -1.5814  -1.5438  -0.4073   1.2987   3.3925   4.1892   4.3385
     5.4747

          k = 0.2667 0.5004 0.0000 ( 47768 PWs)   bands (ev):

   -53.8689 -30.0585 -29.9868 -29.9266 -11.0751 -10.9207  -3.1646  -3.1438
    -2.1411  -1.7715  -1.5119  -0.5010   1.4139   3.2857   4.3515   4.3613
     5.5111

          k = 0.2667 0.5389 0.0000 ( 47801 PWs)   bands (ev):

   -53.8685 -30.0571 -29.9944 -29.9255 -11.0402 -10.9035  -3.2070  -3.1151
    -2.1811  -1.8690  -1.4823  -0.5686   1.5048   3.1929   4.3733   4.4737
     5.5366

          k = 0.2667 0.5774 0.0000 ( 47795 PWs)   bands (ev):

   -53.8684 -30.0564 -29.9973 -29.9251 -11.0283 -10.8976  -3.2284  -3.0929
    -2.2096  -1.8926  -1.4702  -0.5936   1.5402   3.1556   4.3769   4.5196
     5.5458

          k = 0.3000 0.5196 0.0000 ( 47807 PWs)   bands (ev):

   -53.8685 -30.0534 -29.9991 -29.9253 -11.0354 -10.9005  -3.2154  -3.0498
    -2.1809  -1.9628  -1.4812  -0.5784   1.5256   3.1645   4.3511   4.4958
     5.5618

          k = 0.3000 0.5581 0.0000 ( 47778 PWs)   bands (ev):

   -53.8682 -30.0491 -30.0071 -29.9246 -11.0149 -10.8901  -3.2524  -2.9531
    -2.2874  -2.0130  -1.4596  -0.6237   1.5957   3.0865   4.3442   4.5796
     5.5905

          k = 0.3333 0.5774 0.0000 ( 47757 PWs)   bands (ev):

   -53.8681 -30.0447 -30.0131 -29.9244 -11.0063 -10.8855  -3.2679  -2.8592
    -2.3877  -2.0366  -1.4499  -0.6443   1.6312   3.0447   4.3338   4.6179
     5.6098

     the Fermi energy is     1.3225 ev

!    total energy              =    -156.07806265 Ry
     estimated scf accuracy    <          2.1E-13 Ry
     smearing contrib. (-TS)   =      -0.10899678 Ry
     internal energy E=F+TS    =    -155.96906587 Ry

     The total energy is F=E-TS. E is the sum of the following terms:
     one-electron contribution =    -463.70581323 Ry
     hartree contribution      =     233.67693427 Ry
     xc contribution           =     -26.75630459 Ry
     ewald contribution        =     100.81611767 Ry

     convergence has been achieved in  16 iterations

     negative rho (up, down):  3.004E-07 0.000E+00

     Forces acting on atoms (cartesian axes, Ry/au):

     atom    1 type  1   force =    -0.00000000   -0.00000000    0.00000000
     atom    2 type  2   force =    -0.00000000   -0.00000000    0.00000251
     atom    3 type  2   force =     0.00000000    0.00000000   -0.00000251

     Total force =     0.000004     Total SCF correction =     0.000001
     SCF correction compared to forces is large: reduce conv_thr to get better values


     Computing stress (Cartesian axis) and pressure


     negative rho (up, down):  3.004E-07 0.000E+00
          total   stress  (Ry/bohr**3)                   (kbar)     P=       -0.29
  -0.00000291  -0.00000000   0.00000000           -0.43       -0.00        0.00
  -0.00000000  -0.00000291   0.00000000           -0.00       -0.43        0.00
   0.00000000   0.00000000  -0.00000001            0.00        0.00       -0.00


     Writing all to output data dir ./outdir/0.04.save/
 
     init_run     :      2.80s CPU      2.88s WALL (       1 calls)
     electrons    :     58.31s CPU     59.31s WALL (       1 calls)
     forces       :      0.21s CPU      0.23s WALL (       1 calls)
     stress       :      0.61s CPU      0.61s WALL (       1 calls)

     Called by init_run:
     wfcinit      :      2.49s CPU      2.51s WALL (       1 calls)
     potinit      :      0.03s CPU      0.03s WALL (       1 calls)
     hinit0       :      0.17s CPU      0.22s WALL (       1 calls)

     Called by electrons:
     c_bands      :     47.69s CPU     48.44s WALL (      17 calls)
     sum_band     :      7.25s CPU      7.40s WALL (      17 calls)
     v_of_rho     :      0.12s CPU      0.13s WALL (      17 calls)
     newd         :      0.30s CPU      0.31s WALL (      17 calls)
     mix_rho      :      2.93s CPU      2.96s WALL (      17 calls)

     Called by c_bands:
     init_us_2    :      0.57s CPU      0.60s WALL (    3367 calls)
     init_us_2:cp :      0.56s CPU      0.60s WALL (    3367 calls)
     cegterg      :     45.22s CPU     45.89s WALL (    1547 calls)

     Called by *egterg:
     cdiaghg      :      2.15s CPU      2.21s WALL (    6637 calls)
     h_psi        :     39.07s CPU     39.53s WALL (    6819 calls)
     s_psi        :      0.92s CPU      0.96s WALL (    6819 calls)
     g_psi        :      0.11s CPU      0.11s WALL (    5181 calls)

     Called by h_psi:
     h_psi:calbec :      1.89s CPU      1.97s WALL (    6819 calls)
     vloc_psi     :     36.01s CPU     36.35s WALL (    6819 calls)
     add_vuspsi   :      1.00s CPU      1.05s WALL (    6819 calls)

     General routines
     calbec       :      2.51s CPU      2.64s WALL (    8821 calls)
     fft          :      0.13s CPU      0.14s WALL (     213 calls)
     ffts         :      2.06s CPU      2.08s WALL (    4576 calls)
     fftw         :     40.02s CPU     40.43s WALL (  181601 calls)
 
     Parallel routines
 
     PWSCF        :   1m 4.19s CPU   1m10.09s WALL

 
   This run was terminated on:   8:38:38  18Jun2022            

=------------------------------------------------------------------------------=
   JOB DONE.
=------------------------------------------------------------------------------=
