
     Program PWSCF v.7.0 starts on 18Jun2022 at  8:34: 6 

     This program is part of the open-source Quantum ESPRESSO suite
     for quantum simulation of materials; please cite
         "P. Giannozzi et al., J. Phys.:Condens. Matter 21 395502 (2009);
         "P. Giannozzi et al., J. Phys.:Condens. Matter 29 465901 (2017);
         "P. Giannozzi et al., J. Chem. Phys. 152 154105 (2020);
          URL http://www.quantum-espresso.org", 
     in publications or presentations arising from this work. More details at
     http://www.quantum-espresso.org/quote

     Parallel version (MPI), running on    64 processors

     MPI processes distributed on     1 nodes
     471325 MiB available memory on the printing compute node when the environment starts
 
     Reading input from ./inputs/0.05-scf.in
Warning: card &CELL ignored
Warning: card / ignored

     Current dimensions of program PWSCF are:
     Max number of different atomic species (ntypx) = 10
     Max number of k-points (npk) =  40000
     Max angular momentum in pseudopotentials (lmaxx) =  4
     file Nb.pbe-spn-rrkjus_psl.1.0.0.UPF: wavefunction(s)  4S 4P renormalized
     file Se.pbe-mt_fhi.UPF: wavefunction(s)  4f renormalized
     Message from routine setup:
     using ibrav=0 with symmetry is DISCOURAGED, use correct ibrav instead
 
     R & G space division:  proc/nbgrp/npool/nimage =      64
     Subspace diagonalization in iterative solution of the eigenvalue problem:
     a serial algorithm will be used

 
     Parallelization info
     --------------------
     sticks:   dense  smooth     PW     G-vecs:    dense   smooth      PW
     Min          37      37     10                 6011     6011     852
     Max          38      38     11                 6030     6030     875
     Sum        2407    2407    649               385279   385279   54965
 
     Using Slab Decomposition
 


     bravais-lattice index     =            0
     lattice parameter (alat)  =       6.6021  a.u.
     unit-cell volume          =    1008.1256 (a.u.)^3
     number of atoms/cell      =            3
     number of atomic types    =            2
     number of electrons       =        25.00
     number of Kohn-Sham states=           17
     kinetic-energy cutoff     =     200.0000  Ry
     charge density cutoff     =     800.0000  Ry
     scf convergence threshold =      1.0E-12
     mixing beta               =       0.7000
     number of iterations used =            8  local-TF  mixing
     Exchange-correlation= PBE
                           (   1   4   3   4   0   0   0)

     celldm(1)=   6.602142  celldm(2)=   0.000000  celldm(3)=   0.000000
     celldm(4)=   0.000000  celldm(5)=   0.000000  celldm(6)=   0.000000

     crystal axes: (cart. coord. in units of alat)
               a(1) = (   1.000000   0.000000   0.000000 )  
               a(2) = (  -0.500000   0.866025   0.000000 )  
               a(3) = (   0.000000   0.000000   4.045102 )  

     reciprocal axes: (cart. coord. in units 2 pi/alat)
               b(1) = (  1.000000  0.577350  0.000000 )  
               b(2) = (  0.000000  1.154701  0.000000 )  
               b(3) = (  0.000000  0.000000  0.247213 )  


     PseudoPot. # 1 for Nb read from file:
     ./PP/Nb.pbe-spn-rrkjus_psl.1.0.0.UPF
     MD5 check sum: 6ee677a9f002bd3e3657f443f129faad
     Pseudo is Ultrasoft + core correction, Zval = 13.0
     Generated using &quot;atomic&quot; code by A. Dal Corso  v.6.2.2
     Using radial grid of 1227 points,  6 beta functions with: 
                l(1) =   0
                l(2) =   0
                l(3) =   1
                l(4) =   1
                l(5) =   2
                l(6) =   2
     Q(r) pseudized with 0 coefficients 


     PseudoPot. # 2 for Se read from file:
     ./PP/Se.pbe-mt_fhi.UPF
     MD5 check sum: 761aa2365a2a775fd78ad90d13f3567a
     Pseudo is Norm-conserving, Zval =  6.0
     Generated using FHI98PP, converted with fhi2upf.x v.5.0.2
     Using radial grid of  533 points,  3 beta functions with: 
                l(1) =   0
                l(2) =   1
                l(3) =   3

     atomic species   valence    mass     pseudopotential
        Nb            13.00    92.90000     Nb( 1.00)
        Se             6.00    78.96000     Se( 1.00)

     12 Sym. Ops. (no inversion) found



   Cartesian axes

     site n.     atom                  positions (alat units)
         1           Nb  tau(   1) = (   0.0000000   0.0000000   2.0225509  )
         2           Se  tau(   2) = (  -0.0000000   0.5773503   1.5343542  )
         3           Se  tau(   3) = (  -0.0000000   0.5773503   2.5107476  )

     number of k points=    91  Fermi-Dirac smearing, width (Ry)=  0.0500
                       cart. coord. in units 2pi/alat
        k(    1) = (   0.0000000   0.0000000   0.0000000), wk =   0.0022222
        k(    2) = (   0.0000000   0.0384900   0.0000000), wk =   0.0133333
        k(    3) = (   0.0000000   0.0769800   0.0000000), wk =   0.0133333
        k(    4) = (   0.0000000   0.1154701   0.0000000), wk =   0.0133333
        k(    5) = (   0.0000000   0.1539601   0.0000000), wk =   0.0133333
        k(    6) = (   0.0000000   0.1924501   0.0000000), wk =   0.0133333
        k(    7) = (   0.0000000   0.2309401   0.0000000), wk =   0.0133333
        k(    8) = (   0.0000000   0.2694301   0.0000000), wk =   0.0133333
        k(    9) = (   0.0000000   0.3079201   0.0000000), wk =   0.0133333
        k(   10) = (   0.0000000   0.3464102   0.0000000), wk =   0.0133333
        k(   11) = (   0.0000000   0.3849002   0.0000000), wk =   0.0133333
        k(   12) = (   0.0000000   0.4233902   0.0000000), wk =   0.0133333
        k(   13) = (   0.0000000   0.4618802   0.0000000), wk =   0.0133333
        k(   14) = (   0.0000000   0.5003702   0.0000000), wk =   0.0133333
        k(   15) = (   0.0000000   0.5388603   0.0000000), wk =   0.0133333
        k(   16) = (   0.0000000  -0.5773503   0.0000000), wk =   0.0066667
        k(   17) = (   0.0333333   0.0577350   0.0000000), wk =   0.0133333
        k(   18) = (   0.0333333   0.0962250   0.0000000), wk =   0.0266667
        k(   19) = (   0.0333333   0.1347151   0.0000000), wk =   0.0266667
        k(   20) = (   0.0333333   0.1732051   0.0000000), wk =   0.0266667
        k(   21) = (   0.0333333   0.2116951   0.0000000), wk =   0.0266667
        k(   22) = (   0.0333333   0.2501851   0.0000000), wk =   0.0266667
        k(   23) = (   0.0333333   0.2886751   0.0000000), wk =   0.0266667
        k(   24) = (   0.0333333   0.3271652   0.0000000), wk =   0.0266667
        k(   25) = (   0.0333333   0.3656552   0.0000000), wk =   0.0266667
        k(   26) = (   0.0333333   0.4041452   0.0000000), wk =   0.0266667
        k(   27) = (   0.0333333   0.4426352   0.0000000), wk =   0.0266667
        k(   28) = (   0.0333333   0.4811252   0.0000000), wk =   0.0266667
        k(   29) = (   0.0333333   0.5196152   0.0000000), wk =   0.0266667
        k(   30) = (   0.0333333   0.5581053   0.0000000), wk =   0.0266667
        k(   31) = (   0.0666667   0.1154701   0.0000000), wk =   0.0133333
        k(   32) = (   0.0666667   0.1539601   0.0000000), wk =   0.0266667
        k(   33) = (   0.0666667   0.1924501   0.0000000), wk =   0.0266667
        k(   34) = (   0.0666667   0.2309401   0.0000000), wk =   0.0266667
        k(   35) = (   0.0666667   0.2694301   0.0000000), wk =   0.0266667
        k(   36) = (   0.0666667   0.3079201   0.0000000), wk =   0.0266667
        k(   37) = (   0.0666667   0.3464102   0.0000000), wk =   0.0266667
        k(   38) = (   0.0666667   0.3849002   0.0000000), wk =   0.0266667
        k(   39) = (   0.0666667   0.4233902   0.0000000), wk =   0.0266667
        k(   40) = (   0.0666667   0.4618802   0.0000000), wk =   0.0266667
        k(   41) = (   0.0666667   0.5003702   0.0000000), wk =   0.0266667
        k(   42) = (   0.0666667   0.5388603   0.0000000), wk =   0.0266667
        k(   43) = (   0.0666667   0.5773503   0.0000000), wk =   0.0133333
        k(   44) = (   0.1000000   0.1732051   0.0000000), wk =   0.0133333
        k(   45) = (   0.1000000   0.2116951   0.0000000), wk =   0.0266667
        k(   46) = (   0.1000000   0.2501851   0.0000000), wk =   0.0266667
        k(   47) = (   0.1000000   0.2886751   0.0000000), wk =   0.0266667
        k(   48) = (   0.1000000   0.3271652   0.0000000), wk =   0.0266667
        k(   49) = (   0.1000000   0.3656552   0.0000000), wk =   0.0266667
        k(   50) = (   0.1000000   0.4041452   0.0000000), wk =   0.0266667
        k(   51) = (   0.1000000   0.4426352   0.0000000), wk =   0.0266667
        k(   52) = (   0.1000000   0.4811252   0.0000000), wk =   0.0266667
        k(   53) = (   0.1000000   0.5196152   0.0000000), wk =   0.0266667
        k(   54) = (   0.1000000   0.5581053   0.0000000), wk =   0.0266667
        k(   55) = (   0.1333333   0.2309401   0.0000000), wk =   0.0133333
        k(   56) = (   0.1333333   0.2694301   0.0000000), wk =   0.0266667
        k(   57) = (   0.1333333   0.3079201   0.0000000), wk =   0.0266667
        k(   58) = (   0.1333333   0.3464102   0.0000000), wk =   0.0266667
        k(   59) = (   0.1333333   0.3849002   0.0000000), wk =   0.0266667
        k(   60) = (   0.1333333   0.4233902   0.0000000), wk =   0.0266667
        k(   61) = (   0.1333333   0.4618802   0.0000000), wk =   0.0266667
        k(   62) = (   0.1333333   0.5003702   0.0000000), wk =   0.0266667
        k(   63) = (   0.1333333   0.5388603   0.0000000), wk =   0.0266667
        k(   64) = (   0.1333333   0.5773503   0.0000000), wk =   0.0133333
        k(   65) = (   0.1666667   0.2886751   0.0000000), wk =   0.0133333
        k(   66) = (   0.1666667   0.3271652   0.0000000), wk =   0.0266667
        k(   67) = (   0.1666667   0.3656552   0.0000000), wk =   0.0266667
        k(   68) = (   0.1666667   0.4041452   0.0000000), wk =   0.0266667
        k(   69) = (   0.1666667   0.4426352   0.0000000), wk =   0.0266667
        k(   70) = (   0.1666667   0.4811252   0.0000000), wk =   0.0266667
        k(   71) = (   0.1666667   0.5196152   0.0000000), wk =   0.0266667
        k(   72) = (   0.1666667   0.5581053   0.0000000), wk =   0.0266667
        k(   73) = (   0.2000000   0.3464102   0.0000000), wk =   0.0133333
        k(   74) = (   0.2000000   0.3849002   0.0000000), wk =   0.0266667
        k(   75) = (   0.2000000   0.4233902   0.0000000), wk =   0.0266667
        k(   76) = (   0.2000000   0.4618802   0.0000000), wk =   0.0266667
        k(   77) = (   0.2000000   0.5003702   0.0000000), wk =   0.0266667
        k(   78) = (   0.2000000   0.5388603   0.0000000), wk =   0.0266667
        k(   79) = (   0.2000000   0.5773503   0.0000000), wk =   0.0133333
        k(   80) = (   0.2333333   0.4041452   0.0000000), wk =   0.0133333
        k(   81) = (   0.2333333   0.4426352   0.0000000), wk =   0.0266667
        k(   82) = (   0.2333333   0.4811252   0.0000000), wk =   0.0266667
        k(   83) = (   0.2333333   0.5196152   0.0000000), wk =   0.0266667
        k(   84) = (   0.2333333   0.5581053   0.0000000), wk =   0.0266667
        k(   85) = (   0.2666667   0.4618802   0.0000000), wk =   0.0133333
        k(   86) = (   0.2666667   0.5003702   0.0000000), wk =   0.0266667
        k(   87) = (   0.2666667   0.5388603   0.0000000), wk =   0.0266667
        k(   88) = (   0.2666667   0.5773503   0.0000000), wk =   0.0133333
        k(   89) = (   0.3000000   0.5196152   0.0000000), wk =   0.0133333
        k(   90) = (   0.3000000   0.5581053   0.0000000), wk =   0.0266667
        k(   91) = (   0.3333333   0.5773503   0.0000000), wk =   0.0044444

     Dense  grid:   385279 G-vectors     FFT dimensions: (  60,  60, 243)

     Estimated max dynamical RAM per process >      49.07 MB

     Estimated total dynamical RAM >       3.07 GB

     Initial potential from superposition of free atoms

     starting charge      24.9985, renormalised to      25.0000

     negative rho (up, down):  2.569E-03 0.000E+00
     Starting wfcs are   45 randomized atomic wfcs

     total cpu time spent up to now is        3.3 secs

     Self-consistent Calculation

     iteration #  1     ecut=   200.00 Ry     beta= 0.70
     Davidson diagonalization with overlap
     ethr =  1.00E-02,  avg # of iterations =  1.8

     Threshold (ethr) on eigenvalues was too large:
     Diagonalizing with lowered threshold

     Davidson diagonalization with overlap
     ethr =  3.21E-04,  avg # of iterations =  4.4

     negative rho (up, down):  2.677E-06 0.000E+00

     total cpu time spent up to now is        9.9 secs

     total energy              =    -156.11291000 Ry
     estimated scf accuracy    <       0.09549688 Ry

     iteration #  2     ecut=   200.00 Ry     beta= 0.70
     Davidson diagonalization with overlap
     ethr =  3.82E-04,  avg # of iterations =  1.0

     total cpu time spent up to now is       12.4 secs

     total energy              =    -156.10203262 Ry
     estimated scf accuracy    <       0.03772026 Ry

     iteration #  3     ecut=   200.00 Ry     beta= 0.70
     Davidson diagonalization with overlap
     ethr =  1.51E-04,  avg # of iterations =  2.2

     total cpu time spent up to now is       15.5 secs

     total energy              =    -156.10920417 Ry
     estimated scf accuracy    <       0.00319279 Ry

     iteration #  4     ecut=   200.00 Ry     beta= 0.70
     Davidson diagonalization with overlap
     ethr =  1.28E-05,  avg # of iterations =  4.2

     total cpu time spent up to now is       19.1 secs

     total energy              =    -156.10943720 Ry
     estimated scf accuracy    <       0.00160170 Ry

     iteration #  5     ecut=   200.00 Ry     beta= 0.70
     Davidson diagonalization with overlap
     ethr =  6.41E-06,  avg # of iterations =  3.5

     total cpu time spent up to now is       22.3 secs

     total energy              =    -156.10967965 Ry
     estimated scf accuracy    <       0.00031247 Ry

     iteration #  6     ecut=   200.00 Ry     beta= 0.70
     Davidson diagonalization with overlap
     ethr =  1.25E-06,  avg # of iterations =  3.3

     total cpu time spent up to now is       25.4 secs

     total energy              =    -156.10981891 Ry
     estimated scf accuracy    <       0.00016856 Ry

     iteration #  7     ecut=   200.00 Ry     beta= 0.70
     Davidson diagonalization with overlap
     ethr =  6.74E-07,  avg # of iterations =  4.0

     total cpu time spent up to now is       28.8 secs

     total energy              =    -156.10985808 Ry
     estimated scf accuracy    <       0.00000945 Ry

     iteration #  8     ecut=   200.00 Ry     beta= 0.70
     Davidson diagonalization with overlap
     ethr =  3.78E-08,  avg # of iterations =  5.0

     total cpu time spent up to now is       32.6 secs

     total energy              =    -156.10986346 Ry
     estimated scf accuracy    <       0.00000339 Ry

     iteration #  9     ecut=   200.00 Ry     beta= 0.70
     Davidson diagonalization with overlap
     ethr =  1.36E-08,  avg # of iterations =  3.0

     negative rho (up, down):  2.121E-07 0.000E+00

     total cpu time spent up to now is       36.2 secs

     total energy              =    -156.10986533 Ry
     estimated scf accuracy    <       0.00000019 Ry

     iteration # 10     ecut=   200.00 Ry     beta= 0.70
     Davidson diagonalization with overlap
     ethr =  7.55E-10,  avg # of iterations =  6.5

     negative rho (up, down):  5.989E-08 0.000E+00

     total cpu time spent up to now is       40.8 secs

     total energy              =    -156.10986541 Ry
     estimated scf accuracy    <       0.00000006 Ry

     iteration # 11     ecut=   200.00 Ry     beta= 0.70
     Davidson diagonalization with overlap
     ethr =  2.49E-10,  avg # of iterations =  2.1

     negative rho (up, down):  3.866E-08 0.000E+00

     total cpu time spent up to now is       44.0 secs

     total energy              =    -156.10986541 Ry
     estimated scf accuracy    <          4.5E-09 Ry

     iteration # 12     ecut=   200.00 Ry     beta= 0.70
     Davidson diagonalization with overlap
     ethr =  1.78E-11,  avg # of iterations =  5.7

     negative rho (up, down):  4.664E-08 0.000E+00

     total cpu time spent up to now is       48.8 secs

     total energy              =    -156.10986541 Ry
     estimated scf accuracy    <          3.3E-09 Ry

     iteration # 13     ecut=   200.00 Ry     beta= 0.70
     Davidson diagonalization with overlap
     ethr =  1.31E-11,  avg # of iterations =  2.0

     negative rho (up, down):  4.387E-08 0.000E+00

     total cpu time spent up to now is       51.9 secs

     total energy              =    -156.10986541 Ry
     estimated scf accuracy    <          4.5E-10 Ry

     iteration # 14     ecut=   200.00 Ry     beta= 0.70
     Davidson diagonalization with overlap
     ethr =  1.81E-12,  avg # of iterations =  4.8

     negative rho (up, down):  4.447E-08 0.000E+00

     total cpu time spent up to now is       56.1 secs

     total energy              =    -156.10986541 Ry
     estimated scf accuracy    <          5.6E-11 Ry

     iteration # 15     ecut=   200.00 Ry     beta= 0.70
     Davidson diagonalization with overlap
     ethr =  2.25E-13,  avg # of iterations =  2.8

     negative rho (up, down):  4.509E-08 0.000E+00

     total cpu time spent up to now is       59.3 secs

     total energy              =    -156.10986541 Ry
     estimated scf accuracy    <          7.7E-12 Ry

     iteration # 16     ecut=   200.00 Ry     beta= 0.70
     Davidson diagonalization with overlap
     ethr =  1.00E-13,  avg # of iterations =  3.2

     negative rho (up, down):  4.527E-08 0.000E+00

     total cpu time spent up to now is       62.7 secs

     total energy              =    -156.10986541 Ry
     estimated scf accuracy    <          2.8E-12 Ry

     iteration # 17     ecut=   200.00 Ry     beta= 0.70
     Davidson diagonalization with overlap
     ethr =  1.00E-13,  avg # of iterations =  1.1

     negative rho (up, down):  4.523E-08 0.000E+00

     total cpu time spent up to now is       65.1 secs

     End of self-consistent calculation

          k = 0.0000 0.0000 0.0000 ( 48115 PWs)   bands (ev):

   -53.8731 -29.9721 -29.8522 -29.8522 -12.5384 -11.6616  -3.7741  -0.7151
    -0.7151  -0.4959   0.1773   0.1773   1.5788   3.8658   3.8658   3.9886
     3.9886

          k = 0.0000 0.0385 0.0000 ( 48117 PWs)   bands (ev):

   -53.8729 -29.9716 -29.8547 -29.8528 -12.5265 -11.6559  -3.7576  -0.7602
    -0.7036  -0.5356   0.1525   0.1872   1.5712   3.8345   3.8924   3.9358
     3.9736

          k = 0.0000 0.0770 0.0000 ( 48103 PWs)   bands (ev):

   -53.8723 -29.9700 -29.8622 -29.8545 -12.4911 -11.6389  -3.7089  -0.8898
    -0.6698  -0.6422   0.0814   0.2024   1.5464   3.7586   3.8060   3.9307
     3.9685

          k = 0.0000 0.1155 0.0000 ( 48087 PWs)   bands (ev):

   -53.8713 -29.9674 -29.8743 -29.8572 -12.4332 -11.6111  -3.6300  -1.0889
    -0.7947  -0.6151  -0.0272   0.1970   1.4985   3.6511   3.6784   3.8656
     4.0842

          k = 0.0000 0.1540 0.0000 ( 48088 PWs)   bands (ev):

   -53.8700 -29.9640 -29.8904 -29.8609 -12.3543 -11.5732  -3.5247  -1.3382
    -0.9796  -0.5422  -0.1624   0.1560   1.4205   3.5115   3.6324   3.7868
     4.2262

          k = 0.0000 0.1925 0.0000 ( 48092 PWs)   bands (ev):

   -53.8684 -29.9598 -29.9099 -29.8653 -12.2567 -11.5264  -3.3992  -1.6177
    -1.1905  -0.4546  -0.3130   0.0801   1.3097   3.4126   3.6422   3.7037
     4.3812

          k = 0.0000 0.2309 0.0000 ( 48092 PWs)   bands (ev):

   -53.8667 -29.9551 -29.9317 -29.8703 -12.1432 -11.4721  -3.2635  -1.9079
    -1.4231  -0.4696  -0.3570  -0.0183   1.1724   3.3652   3.6255   3.7101
     4.5378

          k = 0.0000 0.2694 0.0000 ( 48112 PWs)   bands (ev):

   -53.8647 -29.9550 -29.9501 -29.8757 -12.0177 -11.4121  -3.1361  -2.1857
    -1.6715  -0.6243  -0.2547  -0.1232   1.0249   3.3673   3.5602   3.8257
     4.6866

          k = 0.0000 0.3079 0.0000 ( 48172 PWs)   bands (ev):

   -53.8628 -29.9787 -29.9449 -29.8811 -11.8844 -11.3487  -3.0588  -2.4089
    -1.9270  -0.7711  -0.2216  -0.1534   0.8884   3.4099   3.5141   3.9731
     4.8213

          k = 0.0000 0.3464 0.0000 ( 48174 PWs)   bands (ev):

   -53.8609 -30.0018 -29.9399 -29.8865 -11.7487 -11.2845  -3.1092  -2.5018
    -2.1787  -0.9055  -0.3064  -0.0587   0.7827   3.4816   3.4905   4.1355
     4.9380

          k = 0.0000 0.3849 0.0000 ( 48158 PWs)   bands (ev):

   -53.8591 -30.0232 -29.9352 -29.8914 -11.6165 -11.2224  -3.2792  -2.4744
    -2.4147  -1.0240  -0.3751   0.0248   0.7214   3.4897   3.5721   4.2972
     5.0349

          k = 0.0000 0.4234 0.0000 ( 48134 PWs)   bands (ev):

   -53.8575 -30.0422 -29.9310 -29.8958 -11.4944 -11.1655  -3.4760  -2.6240
    -2.4176  -1.1240  -0.4277   0.0937   0.7079   3.5078   3.6716   4.4444
     5.1118

          k = 0.0000 0.4619 0.0000 ( 48162 PWs)   bands (ev):

   -53.8562 -30.0578 -29.9275 -29.8995 -11.3896 -11.1170  -3.6525  -2.7972
    -2.3711  -1.2036  -0.4658   0.1467   0.7332   3.5375   3.7712   4.5662
     5.1697

          k = 0.0000 0.5004 0.0000 ( 48168 PWs)   bands (ev):

   -53.8552 -30.0694 -29.9250 -29.9022 -11.3086 -11.0798  -3.7891  -2.9266
    -2.3421  -1.2613  -0.4914   0.1836   0.7779   3.5693   3.8599   4.6557
     5.2098

          k = 0.0000 0.5389 0.0000 ( 48156 PWs)   bands (ev):

   -53.8546 -30.0766 -29.9234 -29.9039 -11.2573 -11.0564  -3.8750  -3.0065
    -2.3276  -1.2963  -0.5059   0.2052   0.8179   3.5934   3.9238   4.7097
     5.2332

          k = 0.0000-0.5774 0.0000 ( 48140 PWs)   bands (ev):

   -53.8544 -30.0790 -29.9228 -29.9044 -11.2398 -11.0485  -3.9043  -3.0335
    -2.3234  -1.3080  -0.5107   0.2123   0.8337   3.6023   3.9475   4.7277
     5.2409

          k = 0.0333 0.0577 0.0000 ( 48099 PWs)   bands (ev):

   -53.8725 -29.9705 -29.8597 -29.8539 -12.5029 -11.6445  -3.7250  -0.8472
    -0.6813  -0.6079   0.0995   0.2041   1.5550   3.7798   3.8457   3.9441
     3.9451

          k = 0.0333 0.0962 0.0000 ( 48093 PWs)   bands (ev):

   -53.8717 -29.9684 -29.8695 -29.8562 -12.4562 -11.6221  -3.6611  -1.0106
    -0.7340  -0.6379  -0.0029   0.2187   1.5187   3.6992   3.7068   3.8890
     4.0440

          k = 0.0333 0.1347 0.0000 ( 48073 PWs)   bands (ev):

   -53.8706 -29.9654 -29.8835 -29.8595 -12.3878 -11.5893  -3.5689  -1.2331
    -0.8970  -0.5757  -0.1411   0.2071   1.4557   3.5628   3.6335   3.8165
     4.1763

          k = 0.0333 0.1732 0.0000 ( 48093 PWs)   bands (ev):

   -53.8691 -29.9616 -29.9011 -29.8637 -12.2995 -11.5469  -3.4530  -1.4953
    -1.0888  -0.4980  -0.3000   0.1598   1.3612   3.4450   3.6132   3.7366
     4.3279

          k = 0.0333 0.2117 0.0000 ( 48091 PWs)   bands (ev):

   -53.8674 -29.9572 -29.9217 -29.8685 -12.1939 -11.4963  -3.3214  -1.7779
    -1.3060  -0.4650  -0.4093   0.0805   1.2371   3.3707   3.6505   3.6600
     4.4860

          k = 0.0333 0.2502 0.0000 ( 48098 PWs)   bands (ev):

   -53.8656 -29.9523 -29.9441 -29.8738 -12.0744 -11.4391  -3.1873  -2.0608
    -1.5446  -0.6248  -0.3152  -0.0182   1.0954   3.3427   3.5969   3.7415
     4.6398

          k = 0.0333 0.2887 0.0000 ( 48144 PWs)   bands (ev):

   -53.8637 -29.9674 -29.9472 -29.8794 -11.9448 -11.3774  -3.0778  -2.3144
    -1.7973  -0.7721  -0.2219  -0.1223   0.9560   3.3528   3.5573   3.8732
     4.7813

          k = 0.0333 0.3272 0.0000 ( 48154 PWs)   bands (ev):

   -53.8617 -29.9907 -29.9421 -29.8849 -11.8102 -11.3134  -3.0566  -2.4764
    -2.0530  -0.9039  -0.2207  -0.1358   0.8406   3.3857   3.5510   4.0294
     4.9047

          k = 0.0333 0.3657 0.0000 ( 48158 PWs)   bands (ev):

   -53.8599 -30.0128 -29.9373 -29.8902 -11.6760 -11.2501  -3.1788  -2.4938
    -2.2993  -1.0189  -0.3066  -0.0617   0.7663   3.4256   3.5847   4.1946
     5.0067

          k = 0.0333 0.4041 0.0000 ( 48157 PWs)   bands (ev):

   -53.8582 -30.0328 -29.9328 -29.8950 -11.5486 -11.1903  -3.3700  -2.5243
    -2.4418  -1.1167  -0.3769  -0.0016   0.7403   3.4668   3.6517   4.3546
     5.0855

          k = 0.0333 0.4426 0.0000 ( 48141 PWs)   bands (ev):

   -53.8568 -30.0500 -29.9290 -29.8992 -11.4347 -11.1374  -3.5582  -2.7174
    -2.3878  -1.1964  -0.4310   0.0457   0.7572   3.5101   3.7364   4.4975
     5.1412

          k = 0.0333 0.4811 0.0000 ( 48165 PWs)   bands (ev):

   -53.8556 -30.0635 -29.9260 -29.9024 -11.3415 -11.0944  -3.7148  -2.8700
    -2.3503  -1.2573  -0.4699   0.0815   0.8005   3.5511   3.8242   4.6140
     5.1756

          k = 0.0333 0.5196 0.0000 ( 48162 PWs)   bands (ev):

   -53.8548 -30.0728 -29.9239 -29.9047 -11.2751 -11.0640  -3.8257  -2.9755
    -2.3294  -1.2984  -0.4948   0.1060   0.8481   3.5830   3.9001   4.6968
     5.1930

          k = 0.0333 0.5581 0.0000 ( 48161 PWs)   bands (ev):

   -53.8544 -30.0776 -29.9228 -29.9058 -11.2405 -11.0482  -3.8832  -3.0294
    -2.3207  -1.3191  -0.5070   0.1184   0.8787   3.6003   3.9455   4.7401
     5.1993

          k = 0.0667 0.1155 0.0000 ( 48029 PWs)   bands (ev):

   -53.8708 -29.9659 -29.8810 -29.8591 -12.3990 -11.5947  -3.5838  -1.1956
    -0.8649  -0.5886  -0.1501   0.2374   1.4673   3.5830   3.6297   3.8250
     4.1638

          k = 0.0667 0.1540 0.0000 ( 48071 PWs)   bands (ev):

   -53.8695 -29.9625 -29.8964 -29.8631 -12.3212 -11.5573  -3.4805  -1.4276
    -1.0241  -0.5251  -0.3330   0.2318   1.3877   3.4647   3.5853   3.7512
     4.3114

          k = 0.0667 0.1925 0.0000 ( 48083 PWs)   bands (ev):

   -53.8679 -29.9585 -29.9149 -29.8679 -12.2249 -11.5111  -3.3574  -1.6886
    -1.2102  -0.5266  -0.4522   0.1917   1.2794   3.3724   3.5889   3.6814
     4.4711

          k = 0.0667 0.2309 0.0000 ( 48127 PWs)   bands (ev):

   -53.8662 -29.9539 -29.9357 -29.8734 -12.1131 -11.4576  -3.2241  -1.9602
    -1.4255  -0.7086  -0.3760   0.1197   1.1511   3.3148   3.6282   3.6468
     4.6297

          k = 0.0667 0.2694 0.0000 ( 48118 PWs)   bands (ev):

   -53.8643 -29.9579 -29.9490 -29.8792 -11.9894 -11.3984  -3.0995  -2.2197
    -1.6668  -0.8652  -0.3041   0.0258   1.0199   3.2914   3.6008   3.7526
     4.7771

          k = 0.0667 0.3079 0.0000 ( 48145 PWs)   bands (ev):

   -53.8624 -29.9804 -29.9439 -29.8852 -11.8582 -11.3359  -3.0268  -2.4234
    -1.9228  -0.9939  -0.2439  -0.0780   0.9076   3.2980   3.6025   3.8934
     4.9058

          k = 0.0667 0.3464 0.0000 ( 48129 PWs)   bands (ev):

   -53.8605 -30.0024 -29.9390 -29.8910 -11.7247 -11.2725  -3.0833  -2.4966
    -2.1781  -1.0976  -0.1998  -0.1811   0.8330   3.3308   3.6299   4.0545
     5.0101

          k = 0.0667 0.3849 0.0000 ( 48157 PWs)   bands (ev):

   -53.8588 -30.0228 -29.9344 -29.8964 -11.5948 -11.2112  -3.2510  -2.4594
    -2.4181  -1.1807  -0.2757  -0.1704   0.8050   3.3857   3.6758   4.2223
     5.0861

          k = 0.0667 0.4234 0.0000 ( 48136 PWs)   bands (ev):

   -53.8572 -30.0409 -29.9303 -29.9012 -11.4749 -11.1551  -3.4403  -2.6307
    -2.4002  -1.2460  -0.3566  -0.1494   0.8199   3.4533   3.7347   4.3855
     5.1315

          k = 0.0667 0.4619 0.0000 ( 48182 PWs)   bands (ev):

   -53.8560 -30.0557 -29.9269 -29.9052 -11.3721 -11.1073  -3.6091  -2.8061
    -2.3540  -1.2956  -0.4210  -0.1316   0.8642   3.5180   3.8046   4.5349
     5.1466

          k = 0.0667 0.5004 0.0000 ( 48183 PWs)   bands (ev):

   -53.8550 -30.0668 -29.9244 -29.9081 -11.2927 -11.0707  -3.7394  -2.9368
    -2.3262  -1.3306  -0.4673  -0.1161   0.9190   3.5649   3.8804   4.6623
     5.1355

          k = 0.0667 0.5389 0.0000 ( 48154 PWs)   bands (ev):

   -53.8544 -30.0736 -29.9228 -29.9100 -11.2425 -11.0477  -3.8213  -3.0174
    -2.3128  -1.3515  -0.4952  -0.1053   0.9637   3.5899   3.9434   4.7560
     5.1103

          k = 0.0667 0.5774 0.0000 ( 48160 PWs)   bands (ev):

   -53.8542 -30.0759 -29.9223 -29.9106 -11.2254 -11.0398  -3.8493  -3.0446
    -2.3090  -1.3584  -0.5045  -0.1014   0.9808   3.5974   3.9684   4.7932
     5.0956

          k = 0.1000 0.1732 0.0000 ( 48071 PWs)   bands (ev):

   -53.8681 -29.9589 -29.9125 -29.8679 -12.2354 -11.5161  -3.3695  -1.6564
    -1.1702  -0.5597  -0.4688   0.2360   1.2941   3.3731   3.5628   3.6880
     4.4694

          k = 0.1000 0.2117 0.0000 ( 48099 PWs)   bands (ev):

   -53.8665 -29.9547 -29.9311 -29.8735 -12.1328 -11.4669  -3.2433  -1.9032
    -1.3421  -0.7842  -0.4139   0.2064   1.1815   3.2986   3.5845   3.6436
     4.6322

          k = 0.1000 0.2502 0.0000 ( 48121 PWs)   bands (ev):

   -53.8647 -29.9513 -29.9500 -29.8798 -12.0167 -11.4113  -3.1152  -2.1494
    -1.5516  -0.9737  -0.3688   0.1431   1.0641   3.2493   3.6266   3.6551
     4.7861

          k = 0.1000 0.2887 0.0000 ( 48123 PWs)   bands (ev):

   -53.8629 -29.9723 -29.9452 -29.8863 -11.8912 -11.3512  -3.0141  -2.3645
    -1.7963  -1.1147  -0.3420   0.0543   0.9615   3.2319   3.6365   3.7681
     4.9214

          k = 0.1000 0.3272 0.0000 ( 48149 PWs)   bands (ev):

   -53.8610 -29.9933 -29.9403 -29.8929 -11.7608 -11.2890  -3.0077  -2.4829
    -2.0560  -1.2150  -0.3369  -0.0492   0.8918   3.2503   3.6660   3.9120
     5.0309

          k = 0.1000 0.3657 0.0000 ( 48150 PWs)   bands (ev):

   -53.8593 -30.0132 -29.9356 -29.8992 -11.6312 -11.2275  -3.1339  -2.4698
    -2.3091  -1.2859  -0.3492  -0.1567   0.8644   3.3036   3.7064   4.0737
     5.1092

          k = 0.1000 0.4041 0.0000 ( 48153 PWs)   bands (ev):

   -53.8576 -30.0313 -29.9314 -29.9050 -11.5083 -11.1695  -3.3114  -2.5399
    -2.4084  -1.3355  -0.3674  -0.2594   0.8778   3.3829   3.7518   4.2417
     5.1528

          k = 0.1000 0.4426 0.0000 ( 48139 PWs)   bands (ev):

   -53.8563 -30.0467 -29.9277 -29.9099 -11.3988 -11.1181  -3.4821  -2.7370
    -2.3535  -1.3688  -0.3814  -0.3502   0.9221   3.4685   3.8043   4.4068
     5.1602

          k = 0.1000 0.4811 0.0000 ( 48167 PWs)   bands (ev):

   -53.8552 -30.0589 -29.9248 -29.9138 -11.3092 -11.0763  -3.6232  -2.8919
    -2.3182  -1.3898  -0.4234  -0.3878   0.9827   3.5333   3.8718   4.5619
     5.1331

          k = 0.1000 0.5196 0.0000 ( 48173 PWs)   bands (ev):

   -53.8544 -30.0673 -29.9228 -29.9165 -11.2455 -11.0468  -3.7231  -2.9986
    -2.3000  -1.4016  -0.4748  -0.3888   1.0405   3.5643   3.9476   4.7005
     5.0777

          k = 0.1000 0.5581 0.0000 ( 48172 PWs)   bands (ev):

   -53.8540 -30.0716 -29.9218 -29.9178 -11.2124 -11.0315  -3.7749  -3.0530
    -2.2931  -1.4069  -0.5014  -0.3882   1.0760   3.5731   3.9999   4.8056
     5.0131

          k = 0.1333 0.2309 0.0000 ( 48111 PWs)   bands (ev):

   -53.8649 -29.9504 -29.9489 -29.8801 -12.0259 -11.4156  -3.1208  -2.1233
    -1.4983  -1.0267  -0.3934   0.1870   1.0798   3.2345   3.6177   3.6349
     4.7910

          k = 0.1333 0.2694 0.0000 ( 48124 PWs)   bands (ev):

   -53.8631 -29.9678 -29.9458 -29.8874 -11.9079 -11.3590  -3.0102  -2.3261
    -1.7025  -1.2106  -0.3999   0.1319   0.9908   3.1962   3.6529   3.6935
     4.9337

          k = 0.1333 0.3079 0.0000 ( 48170 PWs)   bands (ev):

   -53.8613 -29.9869 -29.9411 -29.8949 -11.7830 -11.2991  -2.9619  -2.4624
    -1.9498  -1.3265  -0.4367   0.0477   0.9303   3.1970   3.6879   3.8068
     5.0509

          k = 0.1333 0.3464 0.0000 ( 48152 PWs)   bands (ev):

   -53.8596 -30.0054 -29.9365 -29.9024 -11.6562 -11.2386  -3.0381  -2.4738
    -2.2082  -1.3962  -0.4966  -0.0552   0.9066   3.2407   3.7295   3.9473
     5.1368

          k = 0.1333 0.3849 0.0000 ( 48131 PWs)   bands (ev):

   -53.8579 -30.0225 -29.9322 -29.9094 -11.5332 -11.1800  -3.1900  -2.4525
    -2.4132  -1.4366  -0.5642  -0.1659   0.9196   3.3203   3.7708   4.1030
     5.1879

          k = 0.1333 0.4234 0.0000 ( 48139 PWs)   bands (ev):

   -53.8565 -30.0376 -29.9284 -29.9156 -11.4201 -11.1264  -3.3497  -2.6679
    -2.3498  -1.4571  -0.6237  -0.2741   0.9637   3.4155   3.8138   4.2631
     5.2028

          k = 0.1333 0.4619 0.0000 ( 48149 PWs)   bands (ev):

   -53.8553 -30.0501 -29.9252 -29.9208 -11.3234 -11.0808  -3.4898  -2.8445
    -2.3060  -1.4638  -0.6665  -0.3707   1.0284   3.4921   3.8741   4.4186
     5.1836

          k = 0.1333 0.5004 0.0000 ( 48183 PWs)   bands (ev):

   -53.8544 -30.0593 -29.9246 -29.9228 -11.2489 -11.0458  -3.5974  -2.9754
    -2.2829  -1.4626  -0.6920  -0.4476   1.0982   3.5246   3.9595   4.5604
     5.1370

          k = 0.1333 0.5389 0.0000 ( 48163 PWs)   bands (ev):

   -53.8539 -30.0651 -29.9270 -29.9214 -11.2020 -11.0238  -3.6651  -3.0560
    -2.2736  -1.4588  -0.7045  -0.4974   1.1528   3.5259   4.0399   4.6742
     5.0788

          k = 0.1333 0.5774 0.0000 ( 48184 PWs)   bands (ev):

   -53.8537 -30.0670 -29.9278 -29.9209 -11.1859 -11.0163  -3.6882  -3.0831
    -2.2715  -1.4569  -0.7081  -0.5147   1.1736   3.5227   4.0728   4.7238
     5.0472

          k = 0.1667 0.2887 0.0000 ( 48151 PWs)   bands (ev):

   -53.8614 -29.9845 -29.9414 -29.8957 -11.7905 -11.3025  -2.9470  -2.4526
    -1.9022  -1.3772  -0.4733   0.0831   0.9436   3.1784   3.6951   3.7681
     5.0589

          k = 0.1667 0.3272 0.0000 ( 48175 PWs)   bands (ev):

   -53.8597 -30.0009 -29.9369 -29.9045 -11.6690 -11.2442  -2.9837  -2.4739
    -2.1406  -1.4716  -0.5807   0.0028   0.9281   3.2069   3.7413   3.8750
     5.1544

          k = 0.1667 0.3657 0.0000 ( 48142 PWs)   bands (ev):

   -53.8581 -30.0162 -29.9327 -29.9130 -11.5487 -11.1864  -3.1003  -2.4153
    -2.3839  -1.5190  -0.7034  -0.0991   0.9443   3.2783   3.7838   4.0043
     5.2171

          k = 0.1667 0.4041 0.0000 ( 48151 PWs)   bands (ev):

   -53.8567 -30.0299 -29.9288 -29.9210 -11.4351 -11.1321  -3.2349  -2.6084
    -2.3441  -1.5371  -0.8206  -0.2107   0.9894   3.3729   3.8241   4.1445
     5.2469

          k = 0.1667 0.4426 0.0000 ( 48162 PWs)   bands (ev):

   -53.8554 -30.0416 -29.9280 -29.9255 -11.3343 -11.0839  -3.3587  -2.8005
    -2.2906  -1.5360  -0.9160  -0.3208   1.0576   3.4524   3.8811   4.2841
     5.2467

          k = 0.1667 0.4811 0.0000 ( 48198 PWs)   bands (ev):

   -53.8544 -30.0507 -29.9335 -29.9228 -11.2522 -11.0449  -3.4595  -2.9513
    -2.2615  -1.5238  -0.9826  -0.4182   1.1378   3.4804   3.9745   4.4119
     5.2231

          k = 0.1667 0.5196 0.0000 ( 48196 PWs)   bands (ev):

   -53.8537 -30.0570 -29.9374 -29.9210 -11.1941 -11.0173  -3.5303  -3.0551
    -2.2509  -1.5084  -1.0220  -0.4919   1.2115   3.4666   4.0808   4.5150
     5.1881

          k = 0.1667 0.5581 0.0000 ( 48191 PWs)   bands (ev):

   -53.8534 -30.0602 -29.9394 -29.9201 -11.1639 -11.0030  -3.5668  -3.1079
    -2.2490  -1.4980  -1.0395  -0.5320   1.2564   3.4475   4.1512   4.5756
     5.1610

          k = 0.2000 0.3464 0.0000 ( 48179 PWs)   bands (ev):

   -53.8582 -30.0138 -29.9328 -29.9145 -11.5539 -11.1886  -3.0668  -2.4158
    -2.3568  -1.5517  -0.7542  -0.0749   0.9524   3.2636   3.7884   3.9688
     5.2281

          k = 0.2000 0.3849 0.0000 ( 48159 PWs)   bands (ev):

   -53.8568 -30.0254 -29.9290 -29.9244 -11.4427 -11.1349  -3.1664  -2.5727
    -2.3395  -1.5854  -0.9335  -0.1749   1.0015   3.3495   3.8302   4.0784
     5.2735

          k = 0.2000 0.4234 0.0000 ( 48163 PWs)   bands (ev):

   -53.8555 -30.0351 -29.9336 -29.9256 -11.3412 -11.0859  -3.2587  -2.7683
    -2.2755  -1.5889  -1.0960  -0.2853   1.0735   3.4243   3.8872   4.1918
     5.2944

          k = 0.2000 0.4619 0.0000 ( 48198 PWs)   bands (ev):

   -53.8544 -30.0429 -29.9415 -29.9229 -11.2547 -11.0441  -3.3343  -2.9309
    -2.2371  -1.5736  -1.2244  -0.3932   1.1624   3.4433   3.9872   4.2971
     5.2966

          k = 0.2000 0.5004 0.0000 ( 48209 PWs)   bands (ev):

   -53.8536 -30.0485 -29.9475 -29.9208 -11.1886 -11.0122  -3.3894  -3.0523
    -2.2242  -1.5500  -1.3107  -0.4856   1.2536   3.4103   4.1146   4.3834
     5.2877

          k = 0.2000 0.5389 0.0000 ( 48209 PWs)   bands (ev):

   -53.8531 -30.0519 -29.9513 -29.9195 -11.1470 -10.9921  -3.4227  -3.1272
    -2.2257  -1.5290  -1.3575  -0.5489   1.3245   3.3656   4.2208   4.4406
     5.2767

          k = 0.2000 0.5774 0.0000 ( 48223 PWs)   bands (ev):

   -53.8530 -30.0531 -29.9526 -29.9190 -11.1328 -10.9853  -3.4338  -3.1525
    -2.2282  -1.5205  -1.3719  -0.5717   1.3517   3.3459   4.2622   4.4608
     5.2718

          k = 0.2333 0.4041 0.0000 ( 48189 PWs)   bands (ev):

   -53.8555 -30.0327 -29.9358 -29.9257 -11.3435 -11.0865  -3.2205  -2.7564
    -2.2686  -1.6084  -1.1632  -0.2724   1.0786   3.4142   3.8896   4.1592
     5.3119

          k = 0.2333 0.4426 0.0000 ( 48202 PWs)   bands (ev):

   -53.8544 -30.0381 -29.9464 -29.9229 -11.2561 -11.0437  -3.2566  -2.9191
    -2.2173  -1.6017  -1.3693  -0.3789   1.1742   3.4225   3.9943   4.2355
     5.3380

          k = 0.2333 0.4811 0.0000 ( 48209 PWs)   bands (ev):

   -53.8536 -30.0417 -29.9555 -29.9206 -11.1854 -11.0090  -3.2749  -3.0497
    -2.1949  -1.5778  -1.5298  -0.4804   1.2793   3.3703   4.1363   4.2982
     5.3559

          k = 0.2333 0.5196 0.0000 ( 48210 PWs)   bands (ev):

   -53.8530 -30.0437 -29.9621 -29.9190 -11.1356 -10.9845  -3.2800  -3.1405
    -2.2000  -1.6306  -1.5497  -0.5620   1.3749   3.2966   4.2715   4.3419
     5.3675

          k = 0.2333 0.5581 0.0000 ( 48207 PWs)   bands (ev):

   -53.8527 -30.0446 -29.9657 -29.9182 -11.1098 -10.9719  -3.2795  -3.1871
    -2.2135  -1.6753  -1.5306  -0.6082   1.4337   3.2449   4.3544   4.3641
     5.3733

          k = 0.2667 0.4619 0.0000 ( 48183 PWs)   bands (ev):

   -53.8535 -30.0389 -29.9586 -29.9205 -11.1843 -11.0079  -3.2292  -3.0486
    -2.1789  -1.6170  -1.5876  -0.4784   1.2881   3.3559   4.1438   4.2688
     5.3801

          k = 0.2667 0.5004 0.0000 ( 48176 PWs)   bands (ev):

   -53.8529 -30.0381 -29.9691 -29.9188 -11.1298 -10.9806  -3.1833  -3.1473
    -2.1735  -1.8074  -1.5600  -0.5690   1.4021   3.2572   4.2901   4.2980
     5.4172

          k = 0.2667 0.5389 0.0000 ( 48179 PWs)   bands (ev):

   -53.8525 -30.0368 -29.9765 -29.9178 -11.0957 -10.9634  -3.2090  -3.1363
    -2.2079  -1.9074  -1.5336  -0.6339   1.4917   3.1697   4.3011   4.4147
     5.4431

          k = 0.2667 0.5774 0.0000 ( 48181 PWs)   bands (ev):

   -53.8523 -30.0361 -29.9792 -29.9174 -11.0842 -10.9576  -3.2299  -3.1153
    -2.2340  -1.9321  -1.5227  -0.6579   1.5265   3.1343   4.3044   4.4585
     5.4524

          k = 0.3000 0.5196 0.0000 ( 48177 PWs)   bands (ev):

   -53.8524 -30.0332 -29.9810 -29.9176 -11.0910 -10.9606  -3.2165  -3.0714
    -2.2099  -1.9985  -1.5340  -0.6432   1.5129   3.1416   4.2794   4.4356
     5.4678

          k = 0.3000 0.5581 0.0000 ( 48162 PWs)   bands (ev):

   -53.8522 -30.0290 -29.9888 -29.9170 -11.0710 -10.9502  -3.2523  -2.9775
    -2.3132  -2.0487  -1.5153  -0.6865   1.5822   3.0667   4.2723   4.5155
     5.4964

          k = 0.3333 0.5774 0.0000 ( 48201 PWs)   bands (ev):

   -53.8521 -30.0247 -29.9946 -29.9167 -11.0627 -10.9457  -3.2672  -2.8856
    -2.4126  -2.0709  -1.5073  -0.7060   1.6174   3.0263   4.2619   4.5519
     5.5155

     the Fermi energy is     1.3715 ev

!    total energy              =    -156.10986541 Ry
     estimated scf accuracy    <          5.2E-14 Ry
     smearing contrib. (-TS)   =      -0.18351667 Ry
     internal energy E=F+TS    =    -155.92634874 Ry

     The total energy is F=E-TS. E is the sum of the following terms:
     one-electron contribution =    -461.38575195 Ry
     hartree contribution      =     232.50666893 Ry
     xc contribution           =     -26.73666277 Ry
     ewald contribution        =      99.68939706 Ry

     convergence has been achieved in  17 iterations

     negative rho (up, down):  4.523E-08 0.000E+00

     Forces acting on atoms (cartesian axes, Ry/au):

     atom    1 type  1   force =     0.00000000    0.00000000    0.00000000
     atom    2 type  2   force =     0.00000000    0.00000000   -0.00000331
     atom    3 type  2   force =     0.00000000    0.00000000    0.00000331

     Total force =     0.000005     Total SCF correction =     0.000001
     SCF correction compared to forces is large: reduce conv_thr to get better values


     Computing stress (Cartesian axis) and pressure


     negative rho (up, down):  4.523E-08 0.000E+00
          total   stress  (Ry/bohr**3)                   (kbar)     P=        0.12
   0.00000117  -0.00000000   0.00000000            0.17       -0.00        0.00
  -0.00000000   0.00000117   0.00000000           -0.00        0.17        0.00
   0.00000000   0.00000000   0.00000001            0.00        0.00        0.00


     Writing all to output data dir ./outdir/0.05.save/
 
     init_run     :      2.80s CPU      2.90s WALL (       1 calls)
     electrons    :     60.81s CPU     61.84s WALL (       1 calls)
     forces       :      0.22s CPU      0.23s WALL (       1 calls)
     stress       :      0.62s CPU      0.63s WALL (       1 calls)

     Called by init_run:
     wfcinit      :      2.50s CPU      2.55s WALL (       1 calls)
     potinit      :      0.03s CPU      0.03s WALL (       1 calls)
     hinit0       :      0.16s CPU      0.21s WALL (       1 calls)

     Called by electrons:
     c_bands      :     50.12s CPU     50.88s WALL (      18 calls)
     sum_band     :      7.83s CPU      8.01s WALL (      18 calls)
     v_of_rho     :      0.14s CPU      0.14s WALL (      18 calls)
     newd         :      0.32s CPU      0.33s WALL (      18 calls)
     mix_rho      :      2.38s CPU      2.41s WALL (      18 calls)

     Called by c_bands:
     init_us_2    :      0.61s CPU      0.64s WALL (    3549 calls)
     init_us_2:cp :      0.60s CPU      0.63s WALL (    3549 calls)
     cegterg      :     47.47s CPU     48.16s WALL (    1638 calls)

     Called by *egterg:
     cdiaghg      :      2.26s CPU      2.32s WALL (    7063 calls)
     h_psi        :     41.02s CPU     41.50s WALL (    7245 calls)
     s_psi        :      0.96s CPU      1.00s WALL (    7245 calls)
     g_psi        :      0.11s CPU      0.11s WALL (    5516 calls)

     Called by h_psi:
     h_psi:calbec :      1.96s CPU      2.04s WALL (    7245 calls)
     vloc_psi     :     37.85s CPU     38.19s WALL (    7245 calls)
     add_vuspsi   :      1.03s CPU      1.08s WALL (    7245 calls)

     General routines
     calbec       :      2.61s CPU      2.75s WALL (    9338 calls)
     fft          :      0.14s CPU      0.15s WALL (     224 calls)
     ffts         :      1.68s CPU      1.70s WALL (    3592 calls)
     fftw         :     42.32s CPU     42.74s WALL (  188104 calls)
 
     Parallel routines
 
     PWSCF        :   1m 6.72s CPU   1m13.16s WALL

 
   This run was terminated on:   8:35:19  18Jun2022            

=------------------------------------------------------------------------------=
   JOB DONE.
=------------------------------------------------------------------------------=
